16
	Energy:       5.9163313
C         -1.88520        0.02782        0.00569
C         -0.52563       -0.60118        0.02785
H         -2.00182        0.69568        0.88465
H         -2.67915       -0.74869        0.03890
H         -2.00611        0.62272       -0.92366
C          0.69945        0.27999       -0.01060
C          2.01564       -0.51670        0.01844
H          0.66738        0.96189        0.86693
H          0.66312        0.88900       -0.94004
C          3.23943        0.36129       -0.01983
H          2.04996       -1.19832       -0.85898
H          2.05420       -1.12546        0.94773
O         -0.42641       -1.81902        0.07675
O          3.14423        1.57972       -0.06875
O          4.45943       -0.21522        0.00057
H          5.26910        0.31438       -0.02268
