
                                 *****************
                                 * O   R   C   A *
                                 *****************

           --- An Ab Initio, DFT and Semiempirical electronic structure package ---

                  #######################################################
                  #                        -***-                        #
                  #  Department of molecular theory and spectroscopy    #
                  #              Directorship: Frank Neese              #
                  # Max Planck Institute for Chemical Energy Conversion #
                  #                  D-45470 Muelheim/Ruhr              #
                  #                       Germany                       #
                  #                                                     #
                  #                  All rights reserved                #
                  #                        -***-                        #
                  #######################################################


                         Program Version 4.0.0.2 - RELEASE -


 With contributions from (in alphabetic order):
   Daniel Aravena         : Magnetic Properties
   Michael Atanasov       : Ab Initio Ligand Field Theory
   Ute Becker             : Parallelization
   Martin Brehm           : Molecular dynamics
   Dmytro Bykov           : SCF Hessian
   Vijay G. Chilkuri      : MRCI spin determinant printing
   Dipayan Datta          : RHF DLPNO-CCSD density
   Achintya Kumar Dutta   : EOM-CC, STEOM-CC
   Dmitry Ganyushin       : Spin-Orbit,Spin-Spin,Magnetic field MRCI
   Yang Guo               : DLPNO-NEVPT2, CIM, IAO-localization
   Andreas Hansen         : Spin unrestricted coupled pair/coupled cluster methods
   Lee Huntington         : MR-EOM, pCC
   Robert Izsak           : Overlap fitted RIJCOSX, COSX-SCS-MP3, EOM
   Christian Kollmar      : KDIIS, OOCD, Brueckner-CCSD(T), CCSD density
   Simone Kossmann        : Meta GGA functionals, TD-DFT gradient, OOMP2, MP2 Hessian
   Martin Krupicka        : AUTO-CI
   Dagmar Lenk            : GEPOL surface
   Dimitrios Liakos       : Extrapolation schemes; parallel MDCI
   Dimitrios Manganas     : ROCIS; embedding schemes
   Dimitrios Pantazis     : SARC Basis sets
   Taras Petrenko         : DFT Hessian,TD-DFT gradient, ASA, ECA, R-Raman, ABS, FL, XAS/XES, NRVS
   Peter Pinski           : DLPNO-MP2
   Christoph Reimann      : Effective Core Potentials
   Marius Retegan         : Local ZFS, SOC
   Christoph Riplinger    : Optimizer, TS searches, QM/MM, DLPNO-CCSD(T), (RO)-DLPNO pert. Triples
   Tobias Risthaus        : Range-separated hybrids, TD-DFT gradient, RPA, STAB
   Michael Roemelt        : Restricted open shell CIS
   Masaaki Saitow         : Open-shell DLPNO
   Barbara Sandhoefer     : DKH picture change effects
   Kantharuban Sivalingam : CASSCF convergence, NEVPT2, FIC-MRCI
   Georgi Stoychev        : AutoAux
   Boris Wezisla          : Elementary symmetry handling
   Frank Wennmohs         : Technical directorship


 We gratefully acknowledge several colleagues who have allowed us to
 interface, adapt or use parts of their codes:
   Stefan Grimme, W. Hujo, H. Kruse,             : VdW corrections, initial TS optimization,
                  C. Bannwarth                     DFT functionals, gCP, sTDA/sTD-DF
   Ed Valeev                                     : LibInt (2-el integral package), F12 methods
   Garnet Chan, S. Sharma, J. Yang, R. Olivares  : DMRG
   Ulf Ekstrom                                   : XCFun DFT Library
   Mihaly Kallay                                 : mrcc  (arbitrary order and MRCC methods)
   Jiri Pittner, Ondrej Demel                    : Mk-CCSD
   Frank Weinhold                                : gennbo (NPA and NBO analysis)
   Christopher J. Cramer and Donald G. Truhlar   : smd solvation model


 Your calculation uses the libint2 library for the computation of 2-el integrals
 For citations please refer to: http://libint.valeyev.net

 This ORCA versions uses:
   CBLAS   interface :  Fast vector & matrix operations
   LAPACKE interface :  Fast linear algebra routines
   SCALAPACK package :  Parallel linear algebra routines


Your calculation utilizes the atom-pairwise dispersion correction
with the Becke-Johnson damping scheme (D3BJ)
Cite in your paper:
S.Grimme, S.Ehrlich, L.Goerigk, J Comput Chem, (2011), 32, 1456–1465 
S.Grimme, J.Antony, S.Ehrlich and H.Krieg, J.Chem.Phys., 132, (2010), 154104 
   

Your calculation utilizes the basis: ma-def2-TZVP
   F. Weigend and R. Ahlrichs, Phys. Chem. Chem. Phys. 7, 3297 (2005).
   J. Zheng, X. Xu and D. G. Truhlar, Theor. Chem. Acc. 128, 295 (2011).

Your calculation utilizes the auxiliary basis: def2/J
   F. Weigend, Phys. Chem. Chem. Phys. 8, 1057 (2006).

================================================================================
                                        WARNINGS
                       Please study these warnings very carefully!
================================================================================

Warning: TCutStore was < 0. Adjusted to Thresh (uncritical)

WARNING: Geometry Optimization
  ===> : Switching off AutoStart
         For restart on a previous wavefunction, please use MOREAD

INFO   : the flag for use of LIBINT has been found!

================================================================================
                                       INPUT FILE
================================================================================
NAME = /nobackup/pmljrh/data/HTC-structures/formic_acid/formic_acid.inp
|  1> # avogadro generated ORCA input file
|  2> # Basic Mode
|  3> # formic_acid-GeomOpt
|  4> ! B3LYP RIJCOSX D3 ma-def2-TZVP def2/J Opt TIGHTSCF Grid3 FinalGrid5
|  5> ! Normalprint
|  6> %output
|  7> Print[ P_Basis ] 2
|  8> Print[ P_MOs ] 1
|  9> End 
| 10> 
| 11> * xyz 0 1
| 12>    C       -1.46916        1.87696        0.00000
| 13>    O       -1.47137        3.09644        0.00000
| 14>    O       -0.30055        1.20743        0.00000
| 15>    H       -2.41024        1.33592       -0.00000
| 16>    H       -0.28793        0.24048        0.00000
| 17> *
| 18> 
| 19>                          ****END OF INPUT****
================================================================================

                       *****************************
                       * Geometry Optimization Run *
                       *****************************

Geometry optimization settings:
Update method            Update   .... BFGS
Choice of coordinates    CoordSys .... Redundant Internals
Initial Hessian          InHess   .... Almoef's Model

Convergence Tolerances:
Energy Change            TolE     ....  5.0000e-06 Eh
Max. Gradient            TolMAXG  ....  3.0000e-04 Eh/bohr
RMS Gradient             TolRMSG  ....  1.0000e-04 Eh/bohr
Max. Displacement        TolMAXD  ....  4.0000e-03 bohr
RMS Displacement         TolRMSD  ....  2.0000e-03 bohr

------------------------------------------------------------------------------
                        ORCA OPTIMIZATION COORDINATE SETUP
------------------------------------------------------------------------------

The optimization will be done in new redundant internal coordinates
Making redundant internal coordinates   ...  (new redundants) done
Evaluating the initial hessian          ...  (Almloef) done
Evaluating the coordinates              ...  done
Calculating the B-matrix                .... done
Calculating the G-matrix                .... done
Diagonalizing the G-matrix              .... done
The first mode is                       ....    1
The number of degrees of freedom        ....    9

    -----------------------------------------------------------------
                    Redundant Internal Coordinates


    -----------------------------------------------------------------
         Definition                    Initial Value    Approx d2E/dq
    -----------------------------------------------------------------
      1. B(O   1,C   0)                  1.2195         1.046950   
      2. B(O   2,C   0)                  1.3468         0.655796   
      3. B(H   3,C   0)                  1.0855         0.366074   
      4. B(H   4,O   2)                  0.9670         0.506696   
      5. A(O   1,C   0,O   2)          119.9135         0.476028   
      6. A(O   2,C   0,H   3)          120.2952         0.355073   
      7. A(O   1,C   0,H   3)          119.7914         0.384789   
      8. A(C   0,O   2,H   4)          120.5574         0.372050   
      9. D(H   4,O   2,C   0,H   3)      0.0000         0.031831   
     10. D(H   4,O   2,C   0,O   1)    180.0000         0.031831   
    -----------------------------------------------------------------

Number of atoms                         .... 5
Number of degrees of freedom            .... 10

         *************************************************************
         *                GEOMETRY OPTIMIZATION CYCLE   1            *
         *************************************************************
---------------------------------
CARTESIAN COORDINATES (ANGSTROEM)
---------------------------------
  C     -1.469160    1.876960    0.000000
  O     -1.471370    3.096440    0.000000
  O     -0.300550    1.207430    0.000000
  H     -2.410240    1.335920   -0.000000
  H     -0.287930    0.240480    0.000000

----------------------------
CARTESIAN COORDINATES (A.U.)
----------------------------
  NO LB      ZA    FRAG     MASS         X           Y           Z
   0 C     6.0000    0    12.011   -2.776310    3.546940    0.000000
   1 O     8.0000    0    15.999   -2.780486    5.851424    0.000000
   2 O     8.0000    0    15.999   -0.567957    2.281712    0.000000
   3 H     1.0000    0     1.008   -4.554694    2.524523   -0.000000
   4 H     1.0000    0     1.008   -0.544109    0.454441    0.000000

--------------------------------
INTERNAL COORDINATES (ANGSTROEM)
--------------------------------
 C      0   0   0     0.000000000000     0.00000000     0.00000000
 O      1   0   0     1.219482002532     0.00000000     0.00000000
 O      1   2   0     1.346818381594   119.91345964     0.00000000
 H      1   2   3     1.085521003021   119.79136149   180.00000000
 H      3   1   2     0.967032350493   120.55737025   180.00000121

---------------------------
INTERNAL COORDINATES (A.U.)
---------------------------
 C      0   0   0     0.000000000000     0.00000000     0.00000000
 O      1   0   0     2.304487010032     0.00000000     0.00000000
 O      1   2   0     2.545117893344   119.91345964     0.00000000
 H      1   2   3     2.051337408329   119.79136149   180.00000000
 H      3   1   2     1.827426305074   120.55737025   180.00000121

---------------------
BASIS SET INFORMATION
---------------------
There are 3 groups of distinct atoms

 Group   1 Type C   : 12s7p2d1f contracted to 6s4p2d1f pattern {621111/4111/11/1}
 Group   2 Type O   : 12s7p2d1f contracted to 6s4p2d1f pattern {621111/4111/11/1}
 Group   3 Type H   : 5s1p contracted to 3s1p pattern {311/1}

Atom   0C    basis set group =>   1
Atom   1O    basis set group =>   2
Atom   2O    basis set group =>   2
Atom   3H    basis set group =>   3
Atom   4H    basis set group =>   3

-------------------------
BASIS SET IN INPUT FORMAT
-------------------------

 # Basis set for element : H 
 NewGTO H 
 S 3 
   1      34.0613410000      0.0254393072
   2       5.1235746000      0.1900859489
   3       1.1646626000      0.8524411301
 S 1 
   1       0.3272304100      1.0000000000
 S 1 
   1       0.1030724100      1.0000000000
 P 1 
   1       0.8000000000      1.0000000000
  end;

 # Basis set for element : C 
 NewGTO C 
 S 6 
   1   13575.3496820000      0.0006064549
   2    2035.2333680000      0.0046979088
   3     463.2256235900      0.0243324776
   4     131.2001959800      0.0973999683
   5      42.8530158910      0.3019558425
   6      15.5841857660      0.6623360915
 S 2 
   1       6.2067138508      0.6559530854
   2       2.5764896527      0.3758563329
 S 1 
   1       0.5769633942      1.0000000000
 S 1 
   1       0.2297283136      1.0000000000
 S 1 
   1       0.0951644400      1.0000000000
 P 4 
   1      34.6972322440      0.0113272200
   2       7.9582622826      0.0761696592
   3       2.3780826883      0.3019225220
   4       0.8143320818      0.7278502735
 P 1 
   1       0.2888754725      1.0000000000
 P 1 
   1       0.1005682367      1.0000000000
 D 1 
   1       1.0970000000      1.0000000000
 D 1 
   1       0.3180000000      1.0000000000
 F 1 
   1       0.7610000000      1.0000000000
 S 1 
   1       0.0317214800      1.0000000000
 P 1 
   1       0.0335227456      1.0000000000
  end;

 # Basis set for element : O 
 NewGTO O 
 S 6 
   1   27032.3826310000      0.0005722733
   2    4052.3871392000      0.0044353233
   3     922.3272271000      0.0230201076
   4     261.2407098900      0.0928224906
   5      85.3546413510      0.2937850002
   6      31.0350352450      0.6740160450
 S 2 
   1      12.2608607280      0.6383993702
   2       4.9987076005      0.3953458713
 S 1 
   1       1.1703108158      1.0000000000
 S 1 
   1       0.4647474099      1.0000000000
 S 1 
   1       0.1850453636      1.0000000000
 P 4 
   1      63.2749548010      0.0120183321
   2      14.6270493790      0.0830054217
   3       4.4501223456      0.3199174393
   4       1.5275799647      0.7071554292
 P 1 
   1       0.5293511794      1.0000000000
 P 1 
   1       0.1747842127      1.0000000000
 D 1 
   1       2.3140000000      1.0000000000
 D 1 
   1       0.6450000000      1.0000000000
 F 1 
   1       1.4280000000      1.0000000000
 S 1 
   1       0.0616817879      1.0000000000
 P 1 
   1       0.0582614042      1.0000000000
  end;

-------------------------------
AUXILIARY BASIS SET INFORMATION
-------------------------------
There are 3 groups of distinct atoms

 Group   1 Type C   : 12s5p4d2f1g contracted to 6s4p3d1f1g pattern {711111/2111/211/2/1}
 Group   2 Type O   : 12s5p4d2f1g contracted to 6s4p3d1f1g pattern {711111/2111/211/2/1}
 Group   3 Type H   : 5s2p1d contracted to 3s1p1d pattern {311/2/1}

Atom   0C    basis set group =>   1
Atom   1O    basis set group =>   2
Atom   2O    basis set group =>   2
Atom   3H    basis set group =>   3
Atom   4H    basis set group =>   3

-----------------------------------
AUXILIARY BASIS SET IN INPUT FORMAT
-----------------------------------

 # Auxiliary basis set for element : H 
 NewAuxGTO H 
 S 3 
   1      15.6752927000      0.1007184237
   2       3.6063578000      0.3404257499
   3       1.2080016000      0.6491996172
 S 1 
   1       0.4726794000      1.0000000000
 S 1 
   1       0.2018100000      1.0000000000
 P 2 
   1       2.0281365000      0.5596620919
   2       0.5358730000      0.5596620919
 D 1 
   1       2.2165124000      1.0000000000
  end;

 # Auxiliary basis set for element : C 
 NewAuxGTO C 
 S 7 
   1    1861.0916331000      0.0134602335
   2     642.9939764000      0.0299160374
   3     235.1105725000      0.1008649584
   4      90.7028894000      0.2370970548
   5      36.7794552000      0.3924037254
   6      15.6046273000      0.3195862154
   7       6.8907294000      0.0530104441
 S 1 
   1       3.1478850000     -1.0000000000
 S 1 
   1       1.4777287000      1.0000000000
 S 1 
   1       0.7076466000      1.0000000000
 S 1 
   1       0.3430122000      1.0000000000
 S 1 
   1       0.1669453000      1.0000000000
 P 2 
   1      13.5472892000     -0.6769313712
   2       5.4669419000     -0.3779500978
 P 1 
   1       2.1751721000      1.0000000000
 P 1 
   1       0.8582194000      1.0000000000
 P 1 
   1       0.3376720000      1.0000000000
 D 2 
   1       5.9287253000     -0.3533329857
   2       1.9809209000     -0.7456525731
 D 1 
   1       0.8055417000     -1.0000000000
 D 1 
   1       0.3531244000     -1.0000000000
 F 2 
   1       1.6755626000      0.6311076882
   2       0.5997536000      0.4968166032
 G 1 
   1       1.0024600000     -1.0000000000
  end;

 # Auxiliary basis set for element : O 
 NewAuxGTO O 
 S 7 
   1    2876.8216605000      0.0168151159
   2    1004.7443032000      0.0340137548
   3     369.7579954000      0.1194951309
   4     142.9442404000      0.2664627624
   5      57.8366425000      0.4202764046
   6      24.3864983000      0.2765077335
   7      10.6622662000      0.0057008815
 S 1 
   1       4.8070437000     -1.0000000000
 S 1 
   1       2.2210770000      1.0000000000
 S 1 
   1       1.0447795000      1.0000000000
 S 1 
   1       0.4968425000      1.0000000000
 S 1 
   1       0.2371384000      1.0000000000
 P 2 
   1      64.2613382000     -0.2731534179
   2      16.3006076000     -0.8168011598
 P 1 
   1       4.3550542000      1.0000000000
 P 1 
   1       1.2019554000      1.0000000000
 P 1 
   1       0.3354196000      1.0000000000
 D 2 
   1       9.2146611000     -0.4661230638
   2       2.8435251000     -0.6600908911
 D 1 
   1       0.9955759000     -1.0000000000
 D 1 
   1       0.3649441000     -1.0000000000
 F 2 
   1       2.6420115000      0.5931563945
   2       0.7345613000      0.5931563945
 G 1 
   1       1.3931000000     -1.0000000000
  end;

-------------------------
ECP PARAMETER INFORMATION
-------------------------




-------------------------
ECP BASIS IN INPUT FORMAT
-------------------------


------------------------------------------------------------------------------
                           ORCA GTO INTEGRAL CALCULATION
                           -- RI-GTO INTEGRALS CHOSEN --
------------------------------------------------------------------------------

                         BASIS SET STATISTICS AND STARTUP INFO

Gaussian basis set:
 # of primitive gaussian shells          ...   78
 # of primitive gaussian functions       ...  166
 # of contracted shells                  ...   47
 # of contracted basis functions         ...  117
 Highest angular momentum                ...    3
 Maximum contraction depth               ...    6
Auxiliary gaussian basis set:
 # of primitive gaussian shells          ...   88
 # of primitive gaussian functions       ...  242
 # of contracted shells                  ...   55
 # of contracted aux-basis functions     ...  169
 Highest angular momentum                ...    4
 Maximum contraction depth               ...    7
Ratio of auxiliary to basis functions    ...  1.44
Integral package used                  ... LIBINT
 One Electron integrals                  
   ECP integrals                         ... done
 Ordering auxiliary basis shells         ... done
 Integral threshhold             Thresh  ...  2.500e-11
 Primitive cut-off               TCut    ...  2.500e-12
 Pre-screening matrix                    ... done
 Shell pair data                         ... 
 Ordering of the shell pairs             ... done (   0.000 sec) 1118 of 1128 pairs
 Determination of significant pairs      ... done (   0.000 sec)
 Creation of shell pair data             ... done (   0.000 sec)
 Storage of shell pair data              ... done (   0.003 sec)
 Shell pair data done in (   0.003 sec)
 Computing two index integrals           ... done
 Cholesky decomposition of the V-matrix  ... done


Timings:
 Total evaluation time                   ...   0.229 sec (  0.004 min)
 One electron matrix time                ...   0.015 sec (  0.000 min) =  6.4%
 Schwartz matrix evaluation time         ...   0.187 sec (  0.003 min) = 81.7%
 Two index repulsion integral time       ...   0.003 sec (  0.000 min) =  1.1%
 Cholesky decomposition of V             ...   0.003 sec (  0.000 min) =  1.2%
 Three index repulsion integral time     ...   0.000 sec (  0.000 min) =  0.0%

-------------------------------------------------------------------------------
                                 ORCA SCF
-------------------------------------------------------------------------------

------------
SCF SETTINGS
------------
Hamiltonian:
 Density Functional     Method          .... DFT(GTOs)
 Exchange Functional    Exchange        .... B88
   X-Alpha parameter    XAlpha          ....  0.666667
   Becke's b parameter  XBeta           ....  0.004200
 Correlation Functional Correlation     .... LYP
 LDA part of GGA corr.  LDAOpt          .... VWN-5
 Gradients option       PostSCFGGA      .... off
 Hybrid DFT is turned on
   Fraction HF Exchange ScalHFX         ....  0.200000
   Scaling of DF-GGA-X  ScalDFX         ....  0.720000
   Scaling of DF-GGA-C  ScalDFC         ....  0.810000
   Scaling of DF-LDA-C  ScalLDAC        ....  1.000000
   Perturbative correction              ....  0.000000
   NL short-range parameter             ....  4.800000
 RI-approximation to the Coulomb term is turned on
   Number of auxiliary basis functions  .... 169
   RIJ-COSX (HFX calculated with COS-X)).... on


General Settings:
 Integral files         IntName         .... /nobackup/pmljrh/data/HTC-structures/formic_acid/formic_acid
 Hartree-Fock type      HFTyp           .... RHF
 Total Charge           Charge          ....    0
 Multiplicity           Mult            ....    1
 Number of Electrons    NEL             ....   24
 Basis Dimension        Dim             ....  117
 Nuclear Repulsion      ENuc            ....     69.5189891318 Eh

Convergence Acceleration:
 DIIS                   CNVDIIS         .... on
   Start iteration      DIISMaxIt       ....    12
   Startup error        DIISStart       ....  0.200000
   # of expansion vecs  DIISMaxEq       ....     5
   Bias factor          DIISBfac        ....   1.050
   Max. coefficient     DIISMaxC        ....  10.000
 Newton-Raphson         CNVNR           .... off
 SOSCF                  CNVSOSCF        .... on
   Start iteration      SOSCFMaxIt      ....   150
   Startup grad/error   SOSCFStart      ....  0.003300
 Level Shifting         CNVShift        .... on
   Level shift para.    LevelShift      ....    0.2500
   Turn off err/grad.   ShiftErr        ....    0.0010
 Zerner damping         CNVZerner       .... off
 Static damping         CNVDamp         .... on
   Fraction old density DampFac         ....    0.7000
   Max. Damping (<1)    DampMax         ....    0.9800
   Min. Damping (>=0)   DampMin         ....    0.0000
   Turn off err/grad.   DampErr         ....    0.1000
 Fernandez-Rico         CNVRico         .... off

SCF Procedure:
 Maximum # iterations   MaxIter         ....   125
 SCF integral mode      SCFMode         .... Direct
   Integral package                     .... LIBINT
 Reset frequeny         DirectResetFreq ....    20
 Integral Threshold     Thresh          ....  2.500e-11 Eh
 Primitive CutOff       TCut            ....  2.500e-12 Eh

Convergence Tolerance:
 Convergence Check Mode ConvCheckMode   .... Total+1el-Energy
 Convergence forced     ConvForced      .... 0
 Energy Change          TolE            ....  1.000e-08 Eh
 1-El. energy change                    ....  1.000e-05 Eh
 Orbital Gradient       TolG            ....  1.000e-05
 Orbital Rotation angle TolX            ....  1.000e-05
 DIIS Error             TolErr          ....  5.000e-07


Diagonalization of the overlap matrix:
Smallest eigenvalue                        ... 8.427e-04
Time for diagonalization                   ...    0.003 sec
Threshold for overlap eigenvalues          ... 1.000e-08
Number of eigenvalues below threshold      ... 0
Time for construction of square roots      ...    0.004 sec
Total time needed                          ...    0.007 sec

-------------------
DFT GRID GENERATION
-------------------

General Integration Accuracy     IntAcc      ...  4.340
Radial Grid Type                 RadialGrid  ... Gauss-Chebyshev
Angular Grid (max. acc.)         AngularGrid ... Lebedev-194
Angular grid pruning method      GridPruning ... 3 (G Style)
Weight generation scheme         WeightScheme... Becke
Basis function cutoff            BFCut       ...    1.0000e-11
Integration weight cutoff        WCut        ...    1.0000e-14
Grids for H and He will be reduced by one unit

# of grid points (after initial pruning)     ...  13050 (   0.0 sec)
# of grid points (after weights+screening)   ...  12756 (   0.0 sec)
nearest neighbour list constructed           ...    0.0 sec
Grid point re-assignment to atoms done       ...    0.0 sec
Grid point division into batches done        ...    0.0 sec
Reduced shell lists constructed in    0.1 sec

Total number of grid points                  ...    12756
Total number of batches                      ...      202
Average number of points per batch           ...       63
Average number of grid points per atom       ...     2551
Average number of shells per batch           ...    37.43 (79.65%)
Average number of basis functions per batch  ...    95.19 (81.36%)
Average number of large shells per batch     ...    33.52 (89.54%)
Average number of large basis fcns per batch ...    84.58 (88.86%)
Maximum spatial batch extension              ...  19.47, 17.35, 21.21 au
Average spatial batch extension              ...   3.82,  3.49,  4.27 au

Time for grid setup =    0.095 sec

------------------------------
INITIAL GUESS: MODEL POTENTIAL
------------------------------
Loading Hartree-Fock densities                     ... done
Calculating cut-offs                               ... done
Setting up the integral package                    ... done
Initializing the effective Hamiltonian             ... done
Starting the Coulomb interaction                   ... done (   0.0 sec)
Reading the grid                                   ... done
Mapping shells                                     ... done
Starting the XC term evaluation                    ... done (   0.1 sec)
  promolecular density results
     # of electrons  =     23.999019381
     EX              =    -22.106685608
     EC              =     -0.838947535
     EX+EC           =    -22.945633144
Transforming the Hamiltonian                       ... done (   0.0 sec)
Diagonalizing the Hamiltonian                      ... done (   0.0 sec)
Back transforming the eigenvectors                 ... done (   0.0 sec)
Now organizing SCF variables                       ... done
                      ------------------
                      INITIAL GUESS DONE (   0.3 sec)
                      ------------------
--------------------
COSX GRID GENERATION
--------------------

General Integration Accuracy     IntAcc      ...  3.340
Radial Grid Type                 RadialGrid  ... Gauss-Chebyshev
Angular Grid (max. acc.)         AngularGrid ... Lebedev-50
Angular grid pruning method      GridPruning ... 3 (G Style)
Weight generation scheme         WeightScheme... Becke
Basis function cutoff            BFCut       ...    1.0000e-11
Integration weight cutoff        WCut        ...    1.0000e-14
Grids for H and He will be reduced by one unit

# of grid points (after initial pruning)     ...   2380 (   0.0 sec)
# of grid points (after weights+screening)   ...   2319 (   0.0 sec)
nearest neighbour list constructed           ...    0.0 sec
Grid point re-assignment to atoms done       ...    0.0 sec
Grid point division into batches done        ...    0.0 sec
Reduced shell lists constructed in    0.0 sec

Total number of grid points                  ...     2319
Total number of batches                      ...       39
Average number of points per batch           ...       59
Average number of grid points per atom       ...      464
Average number of shells per batch           ...    40.53 (86.22%)
Average number of basis functions per batch  ...   104.28 (89.12%)
Average number of large shells per batch     ...    37.27 (91.98%)
Average number of large basis fcns per batch ...    95.78 (91.85%)
Maximum spatial batch extension              ...  21.00, 15.98, 25.32 au
Average spatial batch extension              ...   6.08,  4.97,  7.15 au

Overlap Fitting                  UseSFitting ... on
Constructing numerical overlap ... done (      0.0 sec)
Inverting numerical overlap    ... done (      0.0 sec)
Obtaining analytic overlap     ... done (      0.0 sec)
Final contraction and storage  ... done (      0.0 sec)


General Integration Accuracy     IntAcc      ...  3.670
Radial Grid Type                 RadialGrid  ... Gauss-Chebyshev
Angular Grid (max. acc.)         AngularGrid ... Lebedev-50
Angular grid pruning method      GridPruning ... 3 (G Style)
Weight generation scheme         WeightScheme... Becke
Basis function cutoff            BFCut       ...    1.0000e-11
Integration weight cutoff        WCut        ...    1.0000e-14
Grids for H and He will be reduced by one unit

# of grid points (after initial pruning)     ...   3038 (   0.0 sec)
# of grid points (after weights+screening)   ...   2962 (   0.0 sec)
nearest neighbour list constructed           ...    0.0 sec
Grid point re-assignment to atoms done       ...    0.0 sec
Grid point division into batches done        ...    0.0 sec
Reduced shell lists constructed in    0.0 sec

Total number of grid points                  ...     2962
Total number of batches                      ...       50
Average number of points per batch           ...       59
Average number of grid points per atom       ...      592
Average number of shells per batch           ...    40.25 (85.65%)
Average number of basis functions per batch  ...   103.24 (88.24%)
Average number of large shells per batch     ...    36.65 (91.04%)
Average number of large basis fcns per batch ...    93.47 (90.54%)
Maximum spatial batch extension              ...  22.78, 16.75, 27.71 au
Average spatial batch extension              ...   5.75,  4.75,  6.87 au

Overlap Fitting                  UseSFitting ... on
Constructing numerical overlap ... done (      0.0 sec)
Inverting numerical overlap    ... done (      0.0 sec)
Obtaining analytic overlap     ... done (      0.0 sec)
Final contraction and storage  ... done (      0.0 sec)


General Integration Accuracy     IntAcc      ...  4.010
Radial Grid Type                 RadialGrid  ... Gauss-Chebyshev
Angular Grid (max. acc.)         AngularGrid ... Lebedev-110
Angular grid pruning method      GridPruning ... 3 (G Style)
Weight generation scheme         WeightScheme... Becke
Basis function cutoff            BFCut       ...    1.0000e-11
Integration weight cutoff        WCut        ...    1.0000e-14
Grids for H and He will be reduced by one unit

# of grid points (after initial pruning)     ...   5648 (   0.0 sec)
# of grid points (after weights+screening)   ...   5521 (   0.0 sec)
nearest neighbour list constructed           ...    0.0 sec
Grid point re-assignment to atoms done       ...    0.0 sec
Grid point division into batches done        ...    0.0 sec
Reduced shell lists constructed in    0.0 sec

Total number of grid points                  ...     5521
Total number of batches                      ...       88
Average number of points per batch           ...       62
Average number of grid points per atom       ...     1104
Average number of shells per batch           ...    38.88 (82.72%)
Average number of basis functions per batch  ...    99.39 (84.95%)
Average number of large shells per batch     ...    35.13 (90.38%)
Average number of large basis fcns per batch ...    89.22 (89.77%)
Maximum spatial batch extension              ...  24.23, 18.58, 24.28 au
Average spatial batch extension              ...   4.77,  4.27,  5.52 au

Overlap Fitting                  UseSFitting ... on
Constructing numerical overlap ... done (      0.0 sec)
Inverting numerical overlap    ... done (      0.0 sec)
Obtaining analytic overlap     ... done (      0.0 sec)
Final contraction and storage  ... done (      0.0 sec)

Time for X-Grid setup             =    0.192 sec
--------------
SCF ITERATIONS
--------------
               ***  Starting incremental Fock matrix formation  ***

                         ----------------------------
                         !        ITERATION     0   !
                         ----------------------------
   Total Energy        :    -189.590252212930 Eh
   Energy Change       :    -189.590252212930 Eh
   MAX-DP              :       0.064247306582
   RMS-DP              :       0.002352550534
   Actual Damping      :       0.7000
   Actual Level Shift  :       0.2500 Eh
   Int. Num. El.       :    23.99992052 (UP=   11.99996026 DN=   11.99996026)
   Exchange            :   -18.17318628
   Correlation         :    -1.00466703


                         ----------------------------
                         !        ITERATION     1   !
                         ----------------------------
   Total Energy        :    -189.671895764184 Eh
   Energy Change       :      -0.081643551254 Eh
   MAX-DP              :       0.035357121470
   RMS-DP              :       0.001441135720
   Actual Damping      :       0.7000
   Actual Level Shift  :       0.2500 Eh
   Int. Num. El.       :    23.99986531 (UP=   11.99993265 DN=   11.99993265)
   Exchange            :   -17.93356076
   Correlation         :    -0.99778785

                               ***Turning on DIIS***

                         ----------------------------
                         !        ITERATION     2   !
                         ----------------------------
   Total Energy        :    -189.693847746828 Eh
   Energy Change       :      -0.021951982643 Eh
   MAX-DP              :       0.036195210996
   RMS-DP              :       0.001585436258
   Actual Damping      :       0.0000
   Actual Level Shift  :       0.2500 Eh
   Int. Num. El.       :    23.99982866 (UP=   11.99991433 DN=   11.99991433)
   Exchange            :   -17.80773666
   Correlation         :    -0.99383750
   DIIS-Error          :       0.033811936399


                         ----------------------------
                         !        ITERATION     3   !
                         ----------------------------
   Total Energy        :    -189.742174349916 Eh
   Energy Change       :      -0.048326603089 Eh
   MAX-DP              :       0.022854118784
   RMS-DP              :       0.001081392125
   Actual Damping      :       0.0000
   Actual Level Shift  :       0.2500 Eh
   Int. Num. El.       :    23.99980510 (UP=   11.99990255 DN=   11.99990255)
   Exchange            :   -17.69641383
   Correlation         :    -0.98982541
   DIIS-Error          :       0.059619733963
   DIIS coefficients:
      0.65861   0.34139


                         ----------------------------
                         !        ITERATION     4   !
                         ----------------------------
   Total Energy        :    -189.748060022242 Eh
   Energy Change       :      -0.005885672326 Eh
   MAX-DP              :       0.007116891211
   RMS-DP              :       0.000324515330
   Actual Damping      :       0.0000
   Actual Level Shift  :       0.2500 Eh
   Int. Num. El.       :    23.99983708 (UP=   11.99991854 DN=   11.99991854)
   Exchange            :   -17.77731837
   Correlation         :    -0.99241795
   DIIS-Error          :       0.027152712975
   DIIS coefficients:
      0.31433   0.13427   0.55140


                         ----------------------------
                         !        ITERATION     5   !
                         ----------------------------
   Total Energy        :    -189.748916371980 Eh
   Energy Change       :      -0.000856349738 Eh
   MAX-DP              :       0.002629639507
   RMS-DP              :       0.000096502273
   Actual Damping      :       0.0000
   Actual Level Shift  :       0.2500 Eh
   Int. Num. El.       :    23.99984196 (UP=   11.99992098 DN=   11.99992098)
   Exchange            :   -17.78069319
   Correlation         :    -0.99274094
   DIIS-Error          :       0.004226604372
   DIIS coefficients:
      0.05834   0.05760   0.08705   0.79701

                      *** Initiating the SOSCF procedure ***
                           *** Shutting down DIIS ***
                      *** Re-Reading the Fockian *** 
                      *** Removing any level shift *** 

                         ----------------------------
                         !        ITERATION     6   !
                         ----------------------------
   Total Energy        :    -189.748951277746 Eh
   Energy Change       :      -0.000034905766 Eh
   MAX-DP              :       0.000906027845
   RMS-DP              :       0.000034853626
   Orbital gradient    :       0.000469478620
   Orbital Rotation    :       0.000469478620
   Actual Damping      :       0.0000
   Int. Num. El.       :    23.99984592 (UP=   11.99992296 DN=   11.99992296)
   Exchange            :   -17.78015368
   Correlation         :    -0.99274442

               *** Restarting incremental Fock matrix formation ***

                         ----------------------------
                         !        ITERATION     7   !
                         ----------------------------
   Total Energy        :    -189.748957695793 Eh
   Energy Change       :      -0.000006418047 Eh
   MAX-DP              :       0.001093841627
   RMS-DP              :       0.000030260719
   Orbital gradient    :       0.000263855905
   Orbital Rotation    :       0.000973445846
   Actual Damping      :       0.0000
   Int. Num. El.       :    23.99984591 (UP=   11.99992296 DN=   11.99992296)
   Exchange            :   -17.77928675
   Correlation         :    -0.99270963


                         ----------------------------
                         !        ITERATION     8   !
                         ----------------------------
   Total Energy        :    -189.748958123946 Eh
   Energy Change       :      -0.000000428153 Eh
   MAX-DP              :       0.000452820305
   RMS-DP              :       0.000013752189
   Orbital gradient    :       0.000335320127
   Orbital Rotation    :       0.000370312826
   Actual Damping      :       0.0000
   Int. Num. El.       :    23.99984679 (UP=   11.99992339 DN=   11.99992339)
   Exchange            :   -17.77869065
   Correlation         :    -0.99270091


                         ----------------------------
                         !        ITERATION     9   !
                         ----------------------------
   Total Energy        :    -189.748958871444 Eh
   Energy Change       :      -0.000000747498 Eh
   MAX-DP              :       0.000338298032
   RMS-DP              :       0.000008460683
   Orbital gradient    :       0.000062796754
   Orbital Rotation    :       0.000257519969
   Actual Damping      :       0.0000
   Int. Num. El.       :    23.99984698 (UP=   11.99992349 DN=   11.99992349)
   Exchange            :   -17.77934243
   Correlation         :    -0.99271788


                         ----------------------------
                         !        ITERATION    10   !
                         ----------------------------
   Total Energy        :    -189.748958880399 Eh
   Energy Change       :      -0.000000008955 Eh
   MAX-DP              :       0.000072273355
   RMS-DP              :       0.000002481332
   Orbital gradient    :       0.000073364382
   Orbital Rotation    :       0.000118395093
   Actual Damping      :       0.0000
   Int. Num. El.       :    23.99984665 (UP=   11.99992333 DN=   11.99992333)
   Exchange            :   -17.77904587
   Correlation         :    -0.99270666


                         ----------------------------
                         !        ITERATION    11   !
                         ----------------------------
   Total Energy        :    -189.748958916418 Eh
   Energy Change       :      -0.000000036019 Eh
   MAX-DP              :       0.000101791954
   RMS-DP              :       0.000002966913
   Orbital gradient    :       0.000041110524
   Orbital Rotation    :       0.000076821024
   Actual Damping      :       0.0000
   Int. Num. El.       :    23.99984676 (UP=   11.99992338 DN=   11.99992338)
   Exchange            :   -17.77910793
   Correlation         :    -0.99270911


                         ----------------------------
                         !        ITERATION    12   !
                         ----------------------------
   Total Energy        :    -189.748958923310 Eh
   Energy Change       :      -0.000000006892 Eh
   MAX-DP              :       0.000023162669
   RMS-DP              :       0.000001010463
   Orbital gradient    :       0.000016702695
   Orbital Rotation    :       0.000017832615
   Actual Damping      :       0.0000
   Int. Num. El.       :    23.99984682 (UP=   11.99992341 DN=   11.99992341)
   Exchange            :   -17.77922598
   Correlation         :    -0.99271413


                         ----------------------------
                         !        ITERATION    13   !
                         ----------------------------
   Total Energy        :    -189.748958929805 Eh
   Energy Change       :      -0.000000006495 Eh
   MAX-DP              :       0.000015728184
   RMS-DP              :       0.000000446312
   Orbital gradient    :       0.000003056044
   Orbital Rotation    :       0.000011587188
   Actual Damping      :       0.0000
   Int. Num. El.       :    23.99984678 (UP=   11.99992339 DN=   11.99992339)
   Exchange            :   -17.77914732
   Correlation         :    -0.99271075

                 **** Energy Check signals convergence ****
              ***Rediagonalizing the Fockian in SOSCF/NRSCF***

               *****************************************************
               *                     SUCCESS                       *
               *           SCF CONVERGED AFTER  14 CYCLES          *
               *****************************************************

Setting up the final grid:

General Integration Accuracy     IntAcc      ...  5.010
Radial Grid Type                 RadialGrid  ... Gauss-Chebyshev
Angular Grid (max. acc.)         AngularGrid ... Lebedev-434
Angular grid pruning method      GridPruning ... 3 (G Style)
Weight generation scheme         WeightScheme... Becke
Basis function cutoff            BFCut       ...    1.0000e-11
Integration weight cutoff        WCut        ...    1.0000e-14
Grids for H and He will be reduced by one unit

# of grid points (after initial pruning)     ...  45766 (   0.0 sec)
# of grid points (after weights+screening)   ...  44619 (   0.0 sec)
nearest neighbour list constructed           ...    0.0 sec
Grid point re-assignment to atoms done       ...    0.0 sec
Grid point division into batches done        ...    0.3 sec
Reduced shell lists constructed in    0.5 sec

Total number of grid points                  ...    44619
Total number of batches                      ...      700
Average number of points per batch           ...       63
Average number of grid points per atom       ...     8924
Average number of shells per batch           ...    35.36 (75.23%)
Average number of basis functions per batch  ...    89.41 (76.42%)
Average number of large shells per batch     ...    30.95 (87.52%)
Average number of large basis fcns per batch ...    77.60 (86.79%)
Maximum spatial batch extension              ...  17.13, 16.50, 19.88 au
Average spatial batch extension              ...   2.59,  2.44,  2.74 au

Final grid set up in    0.6 sec
Final integration                            ... done (   0.5 sec)
Change in XC energy                          ...    -0.000028771
Integrated number of electrons               ...    23.999999029
Previous integrated no of electrons          ...    23.999846779
Old exchange energy                            =     -4.457621607 Eh
New exchange energy                            =     -4.457423262 Eh
Exchange energy change after final integration =      0.000198345 Eh
Total energy after final integration           =   -189.748789356 Eh
Final COS-X integration done in                =     1.426 sec

----------------
TOTAL SCF ENERGY
----------------

Total Energy       :         -189.74878936 Eh           -5163.32706 eV

Components:
Nuclear Repulsion  :           69.51898913 Eh            1891.70787 eV
Electronic Energy  :         -259.26777849 Eh           -7055.03492 eV
One Electron Energy:         -397.07157509 Eh          -10804.86687 eV
Two Electron Energy:          137.80379661 Eh            3749.83194 eV

Virial components:
Potential Energy   :         -378.67592357 Eh          -10304.29574 eV
Kinetic Energy     :          188.92713421 Eh            5140.96868 eV
Virial Ratio       :            2.00434906


DFT components:
N(Alpha)           :       11.999999514305 electrons
N(Beta)            :       11.999999514305 electrons
N(Total)           :       23.999999028610 electrons
E(X)               :      -17.779175243259 Eh       
E(C)               :       -0.992719898932 Eh       
E(XC)              :      -18.771895142192 Eh       

---------------
SCF CONVERGENCE
---------------

  Last Energy change         ...   -3.1446e-10  Tolerance :   1.0000e-08
  Last MAX-Density change    ...    3.3751e-14  Tolerance :   1.0000e-07
  Last RMS-Density change    ...    4.2242e-16  Tolerance :   5.0000e-09
  Last Orbital Gradient      ...    9.6338e-07  Tolerance :   1.0000e-05
  Last Orbital Rotation      ...    3.9618e-06  Tolerance :   1.0000e-05

             **** THE GBW FILE WAS UPDATED (/nobackup/pmljrh/data/HTC-structures/formic_acid/formic_acid.gbw) ****
             **** DENSITY FILE WAS UPDATED (/nobackup/pmljrh/data/HTC-structures/formic_acid/formic_acid.scfp.tmp) ****
             **** ENERGY FILE WAS UPDATED (/nobackup/pmljrh/data/HTC-structures/formic_acid/formic_acid.en.tmp) ****
----------------
ORBITAL ENERGIES
----------------

  NO   OCC          E(Eh)            E(eV) 
   0   2.0000     -19.195337      -522.3317 
   1   2.0000     -19.128583      -520.5152 
   2   2.0000     -10.319658      -280.8122 
   3   2.0000      -1.115231       -30.3470 
   4   2.0000      -1.029083       -28.0028 
   5   2.0000      -0.666542       -18.1375 
   6   2.0000      -0.593175       -16.1411 
   7   2.0000      -0.461939       -12.5700 
   8   2.0000      -0.455466       -12.3939 
   9   2.0000      -0.402677       -10.9574 
  10   2.0000      -0.338053        -9.1989 
  11   2.0000      -0.295239        -8.0339 
  12   0.0000      -0.026513        -0.7214 
  13   0.0000      -0.023871        -0.6496 
  14   0.0000       0.015783         0.4295 
  15   0.0000       0.035149         0.9565 
  16   0.0000       0.039356         1.0709 
  17   0.0000       0.083513         2.2725 
  18   0.0000       0.102654         2.7933 
  19   0.0000       0.123335         3.3561 
  20   0.0000       0.131592         3.5808 
  21   0.0000       0.139925         3.8075 
  22   0.0000       0.162221         4.4143 
  23   0.0000       0.163171         4.4401 
  24   0.0000       0.184952         5.0328 
  25   0.0000       0.192876         5.2484 
  26   0.0000       0.221704         6.0329 
  27   0.0000       0.262356         7.1391 
  28   0.0000       0.307733         8.3738 
  29   0.0000       0.308590         8.3971 
  30   0.0000       0.391215        10.6455 
  31   0.0000       0.419030        11.4024 
  32   0.0000       0.471713        12.8360 
  33   0.0000       0.503458        13.6998 
  34   0.0000       0.568895        15.4804 
  35   0.0000       0.580628        15.7997 
  36   0.0000       0.608282        16.5522 
  37   0.0000       0.625894        17.0314 
  38   0.0000       0.657673        17.8962 
  39   0.0000       0.680890        18.5280 
  40   0.0000       0.692519        18.8444 
  41   0.0000       0.729312        19.8456 
  42   0.0000       0.780353        21.2345 
  43   0.0000       0.804876        21.9018 
  44   0.0000       0.817428        22.2433 
  45   0.0000       1.007803        27.4237 
  46   0.0000       1.092942        29.7405 
  47   0.0000       1.112341        30.2683 
  48   0.0000       1.245581        33.8940 
  49   0.0000       1.433510        39.0078 
  50   0.0000       1.452825        39.5334 
  51   0.0000       1.461614        39.7725 
  52   0.0000       1.463621        39.8272 
  53   0.0000       1.537832        41.8465 
  54   0.0000       1.634610        44.4800 
  55   0.0000       1.751894        47.6715 
  56   0.0000       1.796230        48.8779 
  57   0.0000       1.826887        49.7121 
  58   0.0000       1.873267        50.9742 
  59   0.0000       1.873731        50.9868 
  60   0.0000       1.951139        53.0932 
  61   0.0000       2.065525        56.2058 
  62   0.0000       2.189157        59.5700 
  63   0.0000       2.199855        59.8611 
  64   0.0000       2.251290        61.2607 
  65   0.0000       2.291853        62.3645 
  66   0.0000       2.399600        65.2964 
  67   0.0000       2.454195        66.7820 
  68   0.0000       2.606469        70.9256 
  69   0.0000       2.617769        71.2331 
  70   0.0000       2.699741        73.4637 
  71   0.0000       2.728105        74.2355 
  72   0.0000       2.827005        76.9267 
  73   0.0000       2.917635        79.3929 
  74   0.0000       2.923790        79.5604 
  75   0.0000       2.942680        80.0744 
  76   0.0000       3.009906        81.9037 
  77   0.0000       3.077882        83.7534 
  78   0.0000       3.134702        85.2996 
  79   0.0000       3.172420        86.3259 
  80   0.0000       3.284520        89.3763 
  81   0.0000       3.342493        90.9539 
  82   0.0000       3.346239        91.0558 
  83   0.0000       3.518224        95.7357 
  84   0.0000       3.711500       100.9951 
  85   0.0000       3.776941       102.7758 
  86   0.0000       3.877159       105.5028 
  87   0.0000       4.177177       113.6668 
  88   0.0000       4.318661       117.5167 
  89   0.0000       4.466361       121.5359 
  90   0.0000       5.116086       139.2158 
  91   0.0000       5.160859       140.4341 
  92   0.0000       5.171619       140.7269 
  93   0.0000       5.221809       142.0927 
  94   0.0000       5.277903       143.6190 
  95   0.0000       5.539093       150.7264 
  96   0.0000       5.555962       151.1854 
  97   0.0000       5.717329       155.5764 
  98   0.0000       5.776049       157.1743 
  99   0.0000       5.801290       157.8611 
 100   0.0000       6.056668       164.8103 
 101   0.0000       6.213954       169.0903 
 102   0.0000       6.286109       171.0537 
 103   0.0000       6.331520       172.2894 
 104   0.0000       6.364714       173.1927 
 105   0.0000       6.411399       174.4630 
 106   0.0000       6.509910       177.1436 
 107   0.0000       6.668981       181.4722 
 108   0.0000       6.678430       181.7293 
 109   0.0000       6.787467       184.6964 
 110   0.0000       6.851429       186.4369 
 111   0.0000       6.971033       189.6915 
 112   0.0000       7.061539       192.1542 
 113   0.0000       7.220699       196.4852 
 114   0.0000      22.935539       624.1077 
 115   0.0000      43.626669      1187.1420 
 116   0.0000      43.709837      1189.4051 
------------------
MOLECULAR ORBITALS
------------------
                      0         1         2         3         4         5   
                 -19.19534 -19.12858 -10.31966  -1.11523  -1.02908  -0.66654
                   2.00000   2.00000   2.00000   2.00000   2.00000   2.00000
                  --------  --------  --------  --------  --------  --------
  0C   1s        -0.000025 -0.000030  0.466962  0.053949  0.031921 -0.060929
  0C   2s         0.000146  0.000198  0.608186  0.112795  0.067091 -0.130411
  0C   3s         0.000672 -0.000785  0.036029 -0.185330 -0.108590  0.222433
  0C   4s        -0.003516 -0.004275 -0.009365 -0.122005 -0.080828  0.247678
  0C   5s         0.006106  0.005011  0.026845 -0.006125 -0.008588  0.041606
  0C   1pz       -0.000000 -0.000000  0.000000  0.000000 -0.000000 -0.000000
  0C   1px       -0.000144 -0.000060  0.001210 -0.068297  0.045017  0.057111
  0C   1py        0.000024 -0.000722  0.000511 -0.014524 -0.165682 -0.128918
  0C   2pz       -0.000000  0.000000  0.000000 -0.000000 -0.000000 -0.000000
  0C   2px       -0.005506  0.000642  0.000469 -0.026747  0.013475  0.030413
  0C   2py        0.004194 -0.007996  0.006909 -0.001547 -0.062208 -0.062059
  0C   3pz       -0.000000  0.000000 -0.000000  0.000000 -0.000000  0.000000
  0C   3px        0.003050  0.002372  0.000660  0.001764 -0.001415 -0.004776
  0C   3py        0.001061  0.002500  0.000978  0.003117 -0.005855 -0.025712
  0C   1dz2       0.000328  0.000301 -0.002021  0.011198  0.006389 -0.006401
  0C   1dxz       0.000000  0.000000 -0.000000 -0.000000  0.000000  0.000000
  0C   1dyz       0.000000 -0.000000 -0.000000 -0.000000  0.000000 -0.000000
  0C   1dx2y2    -0.000316  0.000447 -0.000868  0.003114  0.017368  0.012056
  0C   1dxy       0.000394 -0.000003 -0.000507  0.007593 -0.005943 -0.002774
  0C   2dz2       0.000614  0.000557 -0.003266  0.006749  0.004402 -0.006559
  0C   2dxz       0.000000  0.000000 -0.000000 -0.000000 -0.000000 -0.000000
  0C   2dyz      -0.000000 -0.000000 -0.000000 -0.000000  0.000000 -0.000000
  0C   2dx2y2    -0.001997  0.003461 -0.002211  0.005108  0.004192 -0.000335
  0C   2dxy       0.002658 -0.000547 -0.000047  0.006994 -0.000834  0.000258
  0C   1f0        0.000000 -0.000000 -0.000000  0.000000  0.000000  0.000000
  0C   1f+1       0.000512 -0.000025 -0.000132  0.001487 -0.000390 -0.001841
  0C   1f-1      -0.000291  0.000287 -0.000451  0.000541  0.003707  0.001262
  0C   1f+2       0.000000  0.000000  0.000000 -0.000000 -0.000000 -0.000000
  0C   1f-2       0.000000 -0.000000  0.000000  0.000000  0.000000  0.000000
  0C   1f+3      -0.000130  0.000130 -0.000023 -0.000518  0.000147 -0.002095
  0C   1f-3      -0.000048  0.000379  0.002775 -0.008088 -0.005763  0.007009
  0C   6s        -0.000207 -0.000895  0.002498 -0.000512 -0.001993 -0.002528
  0C   4pz        0.000000 -0.000000  0.000000 -0.000000 -0.000000  0.000000
  0C   4px       -0.000363  0.000327  0.000152  0.000180 -0.000261 -0.001422
  0C   4py        0.000051 -0.001182 -0.000701 -0.000468 -0.000489 -0.001066
  1O   1s         0.000007 -0.435083 -0.000075  0.040059  0.081195  0.033183
  1O   2s         0.000022 -0.639582 -0.000242  0.093834  0.190818  0.078761
  1O   3s         0.000114 -0.035840  0.002590 -0.136335 -0.281266 -0.119623
  1O   4s        -0.001531  0.028066 -0.009292 -0.165118 -0.350667 -0.174485
  1O   5s        -0.002611 -0.009769 -0.007277 -0.049630 -0.116438 -0.107137
  1O   1pz       -0.000000  0.000000  0.000000 -0.000000  0.000000 -0.000000
  1O   1px       -0.000050 -0.000069  0.000007 -0.006942  0.004467  0.016052
  1O   1py        0.000011  0.002192 -0.000590  0.062220  0.106282 -0.042564
  1O   2pz        0.000000 -0.000000  0.000000 -0.000000  0.000000 -0.000000
  1O   2px        0.000119  0.000159 -0.000078 -0.006885  0.003349  0.013626
  1O   2py        0.000867 -0.005657  0.007467  0.043392  0.077712 -0.022127
  1O   3pz        0.000000 -0.000000  0.000000 -0.000000  0.000000 -0.000000
  1O   3px       -0.000614 -0.000335 -0.000028 -0.001114  0.001247  0.004188
  1O   3py        0.001057 -0.000227  0.002403  0.004901  0.010074 -0.006323
  1O   1dz2       0.000078  0.000135 -0.000008  0.001584  0.002748 -0.000584
  1O   1dxz       0.000000  0.000000 -0.000000  0.000000  0.000000 -0.000000
  1O   1dyz       0.000000 -0.000000  0.000000 -0.000000  0.000000  0.000000
  1O   1dx2y2    -0.000019  0.000336 -0.000019  0.003163  0.005668 -0.000540
  1O   1dxy       0.000013  0.000008 -0.000005  0.000545 -0.000326 -0.000776
  1O   2dz2      -0.000178 -0.000708  0.001560  0.003558  0.004383 -0.001764
  1O   2dxz      -0.000000 -0.000000  0.000000  0.000000 -0.000000  0.000000
  1O   2dyz      -0.000000  0.000000 -0.000000  0.000000  0.000000 -0.000000
  1O   2dx2y2     0.000275 -0.001464  0.002808  0.006208  0.011508  0.000280
  1O   2dxy      -0.000134 -0.000005  0.000043  0.002727 -0.000933 -0.003351
  1O   1f0       -0.000000  0.000000 -0.000000 -0.000000  0.000000  0.000000
  1O   1f+1      -0.000033  0.000001  0.000001  0.000158 -0.000096 -0.000232
  1O   1f-1       0.000041  0.000153 -0.000320 -0.001159 -0.001227  0.000531
  1O   1f+2      -0.000000 -0.000000 -0.000000 -0.000000  0.000000 -0.000000
  1O   1f-2      -0.000000  0.000000  0.000000  0.000000 -0.000000  0.000000
  1O   1f+3       0.000075 -0.000020  0.000006 -0.000719  0.000355  0.001088
  1O   1f-3       0.000062 -0.000159  0.000592  0.000995  0.002182  0.000140
  1O   6s        -0.003784  0.002188 -0.007769 -0.001327  0.003242  0.007179
  1O   4pz       -0.000000  0.000000  0.000000  0.000000 -0.000000 -0.000000
  1O   4px       -0.000744 -0.000256  0.000040 -0.000237  0.000343  0.002407
  1O   4py        0.001183  0.000727  0.002856  0.000602 -0.000984 -0.004046
  2O   1s        -0.435088 -0.000011 -0.000026  0.081838 -0.051139  0.017230
  2O   2s        -0.639528 -0.000002 -0.000159  0.192070 -0.120408  0.040967
  2O   3s        -0.036301  0.000148  0.001623 -0.276616  0.175280 -0.063992
  2O   4s         0.028402 -0.001383 -0.002783 -0.372081  0.241569 -0.082140
  2O   5s        -0.010165 -0.002249 -0.001443 -0.115021  0.091442 -0.061732
  2O   1pz       -0.000000  0.000000  0.000000 -0.000000 -0.000000  0.000000
  2O   1px        0.001675 -0.000058 -0.000535  0.067159 -0.024458 -0.189205
  2O   1py        0.000635 -0.000025  0.000429  0.011356 -0.042451  0.248795
  2O   2pz       -0.000000 -0.000000 -0.000000  0.000000 -0.000000  0.000000
  2O   2px       -0.004210  0.001049  0.003153  0.059648 -0.029610 -0.148409
  2O   2py       -0.000236 -0.000496 -0.002805  0.008506 -0.029835  0.192939
  2O   3pz       -0.000000 -0.000000  0.000000 -0.000000  0.000000  0.000000
  2O   3px       -0.000156  0.000524  0.000016  0.006800 -0.006810 -0.048952
  2O   3py       -0.000083 -0.000921 -0.000887  0.001447 -0.002626  0.063302
  2O   1dz2       0.000230  0.000091 -0.000066  0.003462 -0.001989 -0.000211
  2O   1dxz      -0.000000 -0.000000  0.000000 -0.000000  0.000000  0.000000
  2O   1dyz      -0.000000  0.000000 -0.000000 -0.000000 -0.000000 -0.000000
  2O   1dx2y2     0.000060  0.000057  0.000132  0.000586 -0.000906  0.008889
  2O   1dxy       0.000207  0.000016 -0.000183  0.002445 -0.000343 -0.003983
  2O   2dz2      -0.001307 -0.000184  0.001009  0.010230 -0.005228 -0.001153
  2O   2dxz       0.000000  0.000000 -0.000000 -0.000000 -0.000000 -0.000000
  2O   2dyz      -0.000000 -0.000000  0.000000  0.000000  0.000000  0.000000
  2O   2dx2y2    -0.000328 -0.000429 -0.001581  0.000658  0.001749  0.021480
  2O   2dxy      -0.001139  0.000163  0.002131  0.008648 -0.002518 -0.008435
  2O   1f0        0.000000  0.000000 -0.000000  0.000000 -0.000000 -0.000000
  2O   1f+1       0.000121  0.000034 -0.000418 -0.001530  0.000491  0.002076
  2O   1f-1       0.000104 -0.000029  0.000341 -0.000611  0.001147 -0.003380
  2O   1f+2      -0.000000 -0.000000  0.000000  0.000000  0.000000  0.000000
  2O   1f-2       0.000000  0.000000 -0.000000 -0.000000 -0.000000 -0.000000
  2O   1f+3       0.000024 -0.000065 -0.000067  0.000356  0.000939 -0.001294
  2O   1f-3      -0.000379  0.000066  0.000640  0.003650 -0.002441  0.000429
  2O   6s        -0.000204 -0.002557 -0.008876 -0.003257  0.002352 -0.004514
  2O   4pz        0.000000  0.000000 -0.000000  0.000000  0.000000 -0.000000
  2O   4px        0.000454  0.000438  0.002756  0.000688  0.000729  0.001529
  2O   4py        0.001933  0.000096  0.000801  0.000716 -0.000711 -0.000176
  3H   1s        -0.000220 -0.000299 -0.000640 -0.014974 -0.008800  0.068225
  3H   2s        -0.001243 -0.001305 -0.002501 -0.013634 -0.007042  0.079440
  3H   3s         0.001796  0.001930 -0.002167  0.003920 -0.002025  0.007737
  3H   1pz        0.000000  0.000000  0.000000 -0.000000 -0.000000 -0.000000
  3H   1px       -0.000300 -0.000135 -0.001965 -0.002350  0.000202  0.009400
  3H   1py        0.000061 -0.000262 -0.001096 -0.000993 -0.002831  0.002817
  4H   1s        -0.000789 -0.000126 -0.000185 -0.066452  0.055203 -0.126732
  4H   2s        -0.003059 -0.000187 -0.002372 -0.047770  0.045156 -0.143118
  4H   3s         0.004460  0.000794  0.003109 -0.000416  0.001653 -0.035141
  4H   1pz        0.000000 -0.000000  0.000000  0.000000  0.000000  0.000000
  4H   1px        0.000043 -0.000123  0.000404  0.002399 -0.000995 -0.006280
  4H   1py       -0.001390 -0.000052 -0.000697 -0.012411  0.010801 -0.017018
                      6         7         8         9        10        11   
                  -0.59318  -0.46194  -0.45547  -0.40268  -0.33805  -0.29524
                   2.00000   2.00000   2.00000   2.00000   2.00000   2.00000
                  --------  --------  --------  --------  --------  --------
  0C   1s        -0.036067 -0.020824  0.000000 -0.011627 -0.000000  0.007663
  0C   2s        -0.077141 -0.045531  0.000000 -0.025841  0.000000  0.016286
  0C   3s         0.126162  0.081017 -0.000000  0.050305 -0.000000 -0.024638
  0C   4s         0.156364  0.119517  0.000000  0.050923 -0.000000 -0.046280
  0C   5s         0.046926  0.059566  0.000000 -0.042800 -0.000000 -0.055591
  0C   1pz        0.000000 -0.000000  0.255182  0.000000 -0.116634  0.000000
  0C   1px       -0.263356 -0.043874  0.000000  0.150487  0.000000  0.027307
  0C   1py       -0.082127  0.240660  0.000000  0.088258  0.000000  0.043456
  0C   2pz       -0.000000 -0.000000  0.205841  0.000000 -0.099939  0.000000
  0C   2px       -0.157906 -0.018589  0.000000  0.092112  0.000000 -0.002895
  0C   2py       -0.057825  0.161460  0.000000  0.057018 -0.000000  0.036343
  0C   3pz       -0.000000  0.000000  0.072614  0.000000 -0.056505  0.000000
  0C   3px       -0.042180  0.011217  0.000000  0.007205 -0.000000 -0.048940
  0C   3py       -0.043704  0.077317  0.000000 -0.010908 -0.000000  0.049769
  0C   1dz2      -0.000695 -0.003064 -0.000000 -0.003310  0.000000 -0.002721
  0C   1dxz       0.000000  0.000000  0.010256 -0.000000  0.009673 -0.000000
  0C   1dyz       0.000000 -0.000000  0.004347  0.000000 -0.021126 -0.000000
  0C   1dx2y2    -0.003759 -0.010206 -0.000000 -0.018177 -0.000000 -0.001454
  0C   1dxy       0.006656  0.006165 -0.000000 -0.005954  0.000000 -0.033769
  0C   2dz2      -0.003502 -0.000197 -0.000000 -0.006146  0.000000 -0.004377
  0C   2dxz      -0.000000 -0.000000  0.010516 -0.000000  0.018903  0.000000
  0C   2dyz      -0.000000 -0.000000 -0.003760  0.000000 -0.044239 -0.000000
  0C   2dx2y2    -0.012931  0.008677  0.000000 -0.034603 -0.000000  0.001791
  0C   2dxy      -0.002094  0.004378  0.000000 -0.007757 -0.000000 -0.056832
  0C   1f0        0.000000  0.000000 -0.007421 -0.000000  0.001503 -0.000000
  0C   1f+1       0.002381  0.000695 -0.000000 -0.000963 -0.000000  0.000387
  0C   1f-1       0.000720 -0.004644 -0.000000 -0.001045  0.000000 -0.000035
  0C   1f+2      -0.000000 -0.000000 -0.000852 -0.000000  0.007890  0.000000
  0C   1f-2      -0.000000  0.000000 -0.003138  0.000000 -0.004191 -0.000000
  0C   1f+3       0.000884 -0.001545 -0.000000  0.007285  0.000000 -0.008546
  0C   1f-3       0.001163  0.004136  0.000000  0.004411  0.000000  0.003031
  0C   6s        -0.005566  0.015307  0.000000 -0.005161 -0.000000 -0.031190
  0C   4pz        0.000000  0.000000  0.010979 -0.000000  0.001143 -0.000000
  0C   4px       -0.002238  0.000995  0.000000  0.005071 -0.000000 -0.008992
  0C   4py       -0.005047  0.010572 -0.000000 -0.010802  0.000000  0.018463
  1O   1s         0.012255  0.041574 -0.000000  0.009165  0.000000 -0.000700
  1O   2s         0.029019  0.098868 -0.000000  0.021547  0.000000 -0.001711
  1O   3s        -0.042902 -0.149051  0.000000 -0.027514 -0.000000  0.003729
  1O   4s        -0.073296 -0.225072 -0.000000 -0.075776  0.000000  0.001984
  1O   5s        -0.028704 -0.270528 -0.000000 -0.058398  0.000000 -0.015399
  1O   1pz        0.000000 -0.000000  0.205834  0.000000 -0.338514 -0.000000
  1O   1px       -0.105565 -0.009108  0.000000  0.105882  0.000000 -0.444807
  1O   1py       -0.031390 -0.345647 -0.000000 -0.176701 -0.000000 -0.033616
  1O   2pz        0.000000  0.000000  0.169920  0.000000 -0.276878 -0.000000
  1O   2px       -0.084669 -0.007884  0.000000  0.086934  0.000000 -0.362193
  1O   2py       -0.019069 -0.249942  0.000000 -0.122787 -0.000000 -0.023191
  1O   3pz        0.000000 -0.000000  0.084993  0.000000 -0.168957 -0.000000
  1O   3px       -0.030748 -0.003236 -0.000000  0.050511  0.000000 -0.245811
  1O   3py       -0.013850 -0.093591  0.000000 -0.065900 -0.000000 -0.010678
  1O   1dz2      -0.000307 -0.005216 -0.000000 -0.002178 -0.000000 -0.000370
  1O   1dxz      -0.000000  0.000000  0.000262  0.000000  0.000185  0.000000
  1O   1dyz       0.000000 -0.000000 -0.006053 -0.000000  0.006465 -0.000000
  1O   1dx2y2    -0.000629 -0.008339  0.000000 -0.004152  0.000000 -0.000882
  1O   1dxy       0.004537  0.000260 -0.000000 -0.002712  0.000000  0.005929
  1O   2dz2      -0.000712 -0.007459  0.000000 -0.002349 -0.000000 -0.000081
  1O   2dxz       0.000000 -0.000000  0.000683 -0.000000  0.000853 -0.000000
  1O   2dyz      -0.000000  0.000000 -0.019704 -0.000000  0.017297  0.000000
  1O   2dx2y2    -0.001333 -0.011102  0.000000 -0.006453 -0.000000 -0.000244
  1O   2dxy       0.013830  0.001267 -0.000000 -0.008583 -0.000000  0.014980
  1O   1f0        0.000000 -0.000000 -0.001898 -0.000000  0.001336 -0.000000
  1O   1f+1       0.000627 -0.000008 -0.000000 -0.000050  0.000000 -0.000351
  1O   1f-1      -0.000003  0.000913 -0.000000  0.000387  0.000000  0.000060
  1O   1f+2      -0.000000 -0.000000 -0.003365  0.000000  0.003248  0.000000
  1O   1f-2      -0.000000  0.000000 -0.000448 -0.000000 -0.000334  0.000000
  1O   1f+3      -0.003515 -0.000320  0.000000  0.001794 -0.000000 -0.003457
  1O   1f-3      -0.000286 -0.002682  0.000000 -0.001343 -0.000000 -0.000203
  1O   6s         0.021168 -0.097948 -0.000000  0.003075  0.000000 -0.031435
  1O   4pz       -0.000000 -0.000000 -0.008745  0.000000 -0.029376 -0.000000
  1O   4px        0.002725 -0.000834 -0.000000 -0.001814  0.000000 -0.039632
  1O   4py       -0.002967  0.002373  0.000000 -0.004827 -0.000000  0.000742
  2O   1s         0.016970 -0.010479 -0.000000  0.028351  0.000000 -0.011595
  2O   2s         0.040364 -0.024865  0.000000  0.067690  0.000000 -0.028120
  2O   3s        -0.059825  0.038079  0.000000 -0.104556 -0.000000  0.047458
  2O   4s        -0.099455  0.055792 -0.000000 -0.160502  0.000000  0.058116
  2O   5s        -0.069930  0.049771 -0.000000 -0.163966  0.000000  0.106782
  2O   1pz        0.000000 -0.000000  0.315134 -0.000000  0.331889  0.000000
  2O   1px        0.002728  0.202179  0.000000 -0.292302 -0.000000 -0.132872
  2O   1py       -0.212456  0.040750  0.000000 -0.221120 -0.000000  0.040779
  2O   2pz        0.000000 -0.000000  0.263918 -0.000000  0.277665  0.000000
  2O   2px        0.005552  0.168030  0.000000 -0.237351 -0.000000 -0.110328
  2O   2py       -0.167202  0.031180  0.000000 -0.175643 -0.000000  0.029857
  2O   3pz        0.000000 -0.000000  0.157033 -0.000000  0.208386  0.000000
  2O   3px       -0.006166  0.096552  0.000000 -0.161289 -0.000000 -0.089563
  2O   3py       -0.053794 -0.000426 -0.000000 -0.072622  0.000000  0.019881
  2O   1dz2      -0.000918  0.001925  0.000000 -0.004143 -0.000000 -0.000041
  2O   1dxz       0.000000 -0.000000 -0.004841 -0.000000 -0.001970 -0.000000
  2O   1dyz      -0.000000  0.000000  0.000293  0.000000 -0.001872  0.000000
  2O   1dx2y2    -0.002111 -0.003409 -0.000000 -0.001292  0.000000  0.002347
  2O   1dxy       0.003848 -0.000985 -0.000000  0.001593  0.000000 -0.000077
  2O   2dz2      -0.001037  0.004610  0.000000 -0.009968 -0.000000  0.000266
  2O   2dxz      -0.000000  0.000000 -0.020226  0.000000 -0.009075  0.000000
  2O   2dyz       0.000000  0.000000 -0.003268  0.000000 -0.012539 -0.000000
  2O   2dx2y2    -0.000809 -0.014028  0.000000  0.000355 -0.000000  0.007792
  2O   2dxy       0.014000 -0.006885  0.000000  0.009647 -0.000000  0.001788
  2O   1f0       -0.000000  0.000000 -0.004038  0.000000 -0.002427 -0.000000
  2O   1f+1      -0.000362 -0.001395  0.000000  0.001468 -0.000000  0.000747
  2O   1f-1       0.002372 -0.000024 -0.000000  0.000965  0.000000 -0.000154
  2O   1f+2       0.000000  0.000000 -0.000062  0.000000 -0.000906 -0.000000
  2O   1f-2      -0.000000 -0.000000 -0.002993  0.000000 -0.001121  0.000000
  2O   1f+3       0.002568 -0.000973  0.000000 -0.000978 -0.000000  0.000047
  2O   1f-3      -0.000002  0.001209  0.000000 -0.002726 -0.000000 -0.001003
  2O   6s        -0.014710  0.020136 -0.000000 -0.028190  0.000000  0.095500
  2O   4pz       -0.000000 -0.000000  0.005986 -0.000000  0.038924  0.000000
  2O   4px        0.004678  0.000608  0.000000 -0.022231 -0.000000 -0.026279
  2O   4py        0.002579 -0.005733  0.000000  0.009320 -0.000000  0.003599
  3H   1s         0.148456 -0.010832 -0.000000 -0.084942 -0.000000 -0.085096
  3H   2s         0.189446 -0.015928 -0.000000 -0.130225  0.000000 -0.140971
  3H   3s         0.032819  0.014181  0.000000 -0.084520 -0.000000 -0.143449
  3H   1pz       -0.000000 -0.000000  0.007338 -0.000000 -0.004997  0.000000
  3H   1px        0.018034 -0.003580  0.000000 -0.008032  0.000000 -0.007795
  3H   1py        0.011443  0.004087 -0.000000 -0.005621  0.000000  0.001296
  4H   1s         0.077267 -0.003005  0.000000  0.083995 -0.000000 -0.021201
  4H   2s         0.106003 -0.015337 -0.000000  0.141972  0.000000 -0.042739
  4H   3s         0.032239 -0.008772  0.000000  0.082835 -0.000000 -0.047593
  4H   1pz        0.000000  0.000000  0.016057 -0.000000  0.019046 -0.000000
  4H   1px       -0.002353  0.010262  0.000000 -0.015490 -0.000000 -0.004970
  4H   1py        0.010591 -0.001902  0.000000  0.007656 -0.000000 -0.000234
                     12        13        14        15        16        17   
                  -0.02651  -0.02387   0.01578   0.03515   0.03936   0.08351
                   0.00000   0.00000   0.00000   0.00000   0.00000   0.00000
                  --------  --------  --------  --------  --------  --------
  0C   1s        -0.000000 -0.005952 -0.024627  0.005876 -0.000000  0.009833
  0C   2s        -0.000000 -0.012717 -0.053679  0.013675 -0.000000  0.020507
  0C   3s         0.000000 -0.000587  0.073357 -0.026001  0.000000 -0.011103
  0C   4s         0.000000  0.234431  0.339912 -0.038273 -0.000000 -0.243428
  0C   5s        -0.000000 -0.543678  0.360873 -1.399096  0.000000  0.917320
  0C   1pz       -0.370319  0.000000 -0.000000 -0.000000 -0.161483  0.000000
  0C   1px       -0.000000 -0.092313 -0.051865  0.001102  0.000000 -0.061643
  0C   1py       -0.000000 -0.023280 -0.081482 -0.005368 -0.000000  0.005054
  0C   2pz       -0.347083  0.000000 -0.000000 -0.000000 -0.152904  0.000000
  0C   2px        0.000000 -0.069286 -0.076946  0.010756  0.000000 -0.037021
  0C   2py       -0.000000 -0.018368 -0.089897 -0.041351 -0.000000 -0.002031
  0C   3pz       -0.599522  0.000000 -0.000000 -0.000000 -0.263564 -0.000000
  0C   3px        0.000000 -0.299918  0.121615 -0.111248  0.000000  0.060604
  0C   3py        0.000000  0.029886 -0.226729 -0.547061 -0.000000 -0.400284
  0C   1dz2       0.000000 -0.004726  0.004342 -0.008022  0.000000  0.000423
  0C   1dxz       0.005644 -0.000000  0.000000  0.000000 -0.000212  0.000000
  0C   1dyz       0.012294 -0.000000 -0.000000  0.000000  0.002755  0.000000
  0C   1dx2y2     0.000000 -0.004196 -0.000169 -0.001141  0.000000 -0.010886
  0C   1dxy      -0.000000 -0.000325  0.002473  0.001414 -0.000000 -0.005185
  0C   2dz2       0.000000 -0.018206 -0.010304  0.000969  0.000000  0.005417
  0C   2dxz       0.031542 -0.000000  0.000000 -0.000000 -0.016778  0.000000
  0C   2dyz       0.057721 -0.000000  0.000000 -0.000000 -0.007399  0.000000
  0C   2dx2y2     0.000000  0.008450 -0.003954  0.005431  0.000000  0.009791
  0C   2dxy       0.000000  0.019054 -0.005743  0.000599  0.000000 -0.007704
  0C   1f0       -0.003225  0.000000 -0.000000  0.000000  0.002899 -0.000000
  0C   1f+1      -0.000000  0.000582  0.002286 -0.000895  0.000000  0.000235
  0C   1f-1       0.000000  0.001192  0.001298 -0.000196 -0.000000  0.000535
  0C   1f+2      -0.004064  0.000000 -0.000000 -0.000000  0.000075 -0.000000
  0C   1f-2      -0.003049  0.000000 -0.000000  0.000000  0.000610  0.000000
  0C   1f+3      -0.000000  0.004480 -0.002537 -0.001641 -0.000000  0.003774
  0C   1f-3      -0.000000  0.006357  0.003379  0.000072 -0.000000 -0.000013
  0C   6s        -0.000001 -1.383422 -0.412134 -2.035884  0.000000  2.077552
  0C   4pz       -0.386931  0.000000 -0.000000  0.000000  1.472547 -0.000000
  0C   4px       -0.000000 -0.294785  1.247764 -0.214529  0.000000  1.340947
  0C   4py        0.000000  0.696013  0.158434 -1.584060  0.000000 -1.616555
  1O   1s         0.000000 -0.003670  0.000440 -0.015515  0.000000 -0.006335
  1O   2s         0.000000 -0.009165  0.001515 -0.037012  0.000000 -0.015826
  1O   3s        -0.000000  0.020540 -0.007945  0.054786 -0.000000  0.032537
  1O   4s         0.000000  0.001187  0.021631  0.124532  0.000000  0.015415
  1O   5s        -0.000000  0.058532 -0.108256  0.327051 -0.000000  0.252670
  1O   1pz        0.285042 -0.000000  0.000000  0.000000  0.030893  0.000000
  1O   1px        0.000000  0.068436 -0.027639 -0.011022  0.000000 -0.016116
  1O   1py        0.000000 -0.003429  0.034810  0.010812 -0.000000 -0.023973
  1O   2pz        0.234793 -0.000000 -0.000000  0.000000  0.007054  0.000000
  1O   2px       -0.000000  0.052315 -0.031035 -0.008006  0.000000 -0.017688
  1O   2py       -0.000000  0.001476  0.037370  0.017162 -0.000000 -0.037145
  1O   3pz        0.284613 -0.000000 -0.000000  0.000000  0.161114  0.000000
  1O   3px       -0.000000  0.074872  0.031417 -0.009996 -0.000000  0.005211
  1O   3py       -0.000000  0.026972  0.041415 -0.230052  0.000000 -0.044965
  1O   1dz2      -0.000000 -0.000371  0.000289  0.000371 -0.000000  0.000432
  1O   1dxz       0.000622  0.000000  0.000000 -0.000000 -0.000203  0.000000
  1O   1dyz       0.003120 -0.000000 -0.000000  0.000000  0.003125 -0.000000
  1O   1dx2y2     0.000000 -0.000334  0.000018  0.000873 -0.000000  0.000036
  1O   1dxy       0.000000  0.000762  0.001386 -0.000105 -0.000000  0.001538
  1O   2dz2      -0.000000  0.002000  0.002749 -0.006944  0.000000  0.001220
  1O   2dxz       0.001213  0.000000 -0.000000  0.000000  0.000466  0.000000
  1O   2dyz       0.014071 -0.000000  0.000000 -0.000000  0.003867 -0.000000
  1O   2dx2y2    -0.000000  0.002590  0.000752 -0.007039 -0.000000 -0.002542
  1O   2dxy       0.000000  0.006122 -0.000802 -0.000468 -0.000000  0.007948
  1O   1f0        0.001745 -0.000000 -0.000000  0.000000  0.000758  0.000000
  1O   1f+1      -0.000000  0.000457 -0.000016 -0.000060  0.000000  0.000370
  1O   1f-1      -0.000000 -0.000166 -0.000198  0.000594  0.000000 -0.000422
  1O   1f+2       0.001283 -0.000000  0.000000 -0.000000  0.000861 -0.000000
  1O   1f-2      -0.000307  0.000000  0.000000 -0.000000 -0.000085  0.000000
  1O   1f+3      -0.000000 -0.001058 -0.000226  0.000029  0.000000 -0.001545
  1O   1f-3      -0.000000  0.000450  0.000121 -0.000154  0.000000 -0.000056
  1O   6s        -0.000000 -0.073224  0.921908  2.564115 -0.000000 -0.655590
  1O   4pz        0.328132 -0.000000  0.000000 -0.000000 -0.424363  0.000000
  1O   4px       -0.000000  0.082187 -0.273640  0.039972  0.000000 -0.433016
  1O   4py        0.000000 -0.136187 -0.394057 -0.187360 -0.000000  0.427458
  2O   1s        -0.000000 -0.020815  0.015415 -0.005375  0.000000 -0.015412
  2O   2s        -0.000000 -0.050464  0.037144 -0.012865  0.000000 -0.038467
  2O   3s         0.000000  0.086442 -0.057400  0.018847  0.000000  0.077339
  2O   4s        -0.000000  0.124539 -0.115851  0.049393 -0.000000  0.021170
  2O   5s        -0.000000  0.369412 -0.274810  0.026866 -0.000000  0.567126
  2O   1pz        0.181328 -0.000000  0.000000  0.000000 -0.017141 -0.000000
  2O   1px       -0.000000 -0.000108  0.031163  0.024453 -0.000000 -0.021519
  2O   1py       -0.000000 -0.125133  0.038535  0.061441 -0.000000 -0.127569
  2O   2pz        0.153785 -0.000000  0.000000 -0.000000 -0.028216 -0.000000
  2O   2px        0.000000  0.000658  0.030090  0.024646 -0.000000 -0.043442
  2O   2py        0.000000 -0.113867  0.037437  0.042672  0.000000 -0.126896
  2O   3pz        0.203638 -0.000000  0.000000  0.000000  0.065777  0.000000
  2O   3px        0.000000 -0.018253  0.125559 -0.008305  0.000000  0.105530
  2O   3py       -0.000000 -0.204205  0.071870  0.155808 -0.000000 -0.378368
  2O   1dz2       0.000000  0.000482 -0.001095 -0.000191  0.000000  0.002944
  2O   1dxz       0.003564 -0.000000  0.000000  0.000000  0.002373 -0.000000
  2O   1dyz      -0.002967  0.000000  0.000000  0.000000 -0.001420  0.000000
  2O   1dx2y2    -0.000000  0.001418  0.001112 -0.000024 -0.000000  0.004174
  2O   1dxy      -0.000000  0.001050 -0.001107  0.000030 -0.000000  0.003018
  2O   2dz2       0.000000  0.000056  0.005796 -0.002864 -0.000000 -0.002948
  2O   2dxz       0.015201 -0.000000  0.000000  0.000000  0.007709  0.000000
  2O   2dyz      -0.014212  0.000000 -0.000000  0.000000 -0.004907  0.000000
  2O   2dx2y2     0.000000  0.002015  0.007783 -0.001578  0.000000 -0.009775
  2O   2dxy       0.000000  0.010098 -0.002271 -0.001388  0.000000  0.016890
  2O   1f0        0.000425 -0.000000  0.000000  0.000000  0.001152  0.000000
  2O   1f+1       0.000000 -0.000224 -0.000078  0.000256  0.000000 -0.000290
  2O   1f-1      -0.000000  0.001475 -0.000666 -0.000347 -0.000000  0.002420
  2O   1f+2      -0.002578  0.000000 -0.000000 -0.000000 -0.000614  0.000000
  2O   1f-2       0.000784 -0.000000 -0.000000  0.000000  0.000864  0.000000
  2O   1f+3       0.000000  0.001421  0.000605 -0.000219  0.000000  0.001713
  2O   1f-3       0.000000 -0.000319  0.001296  0.000495  0.000000 -0.001769
  2O   6s         0.000001  1.529820 -0.757516 -0.099998 -0.000000 -2.771435
  2O   4pz        0.227554 -0.000000  0.000000 -0.000000 -0.106965 -0.000000
  2O   4px       -0.000000 -0.311411  0.129486  0.031065  0.000000  0.036818
  2O   4py        0.000000  0.116228 -0.601903  0.409450 -0.000000  1.481291
  3H   1s        -0.000000  0.021512 -0.008002  0.020307 -0.000000 -0.008762
  3H   2s        -0.000000 -0.028045 -0.109799  0.074438 -0.000000 -0.020673
  3H   3s         0.000000 -0.016581 -0.198612  0.061732 -0.000000 -0.343750
  3H   1pz       -0.025941  0.000000 -0.000000 -0.000000 -0.002219 -0.000000
  3H   1px        0.000000 -0.000195  0.010845  0.002354  0.000000  0.006103
  3H   1py       -0.000000  0.004686  0.000847 -0.006189 -0.000000 -0.004400
  4H   1s         0.000000 -0.032779  0.010231 -0.000975  0.000000 -0.054004
  4H   2s        -0.000000 -0.131638  0.102845  0.006306 -0.000000 -0.374887
  4H   3s        -0.000000 -0.730839 -0.010490  0.392790 -0.000000  0.026067
  4H   1pz        0.011250 -0.000000 -0.000000  0.000000  0.007380 -0.000000
  4H   1px        0.000000  0.002483  0.006549 -0.002626  0.000000 -0.009895
  4H   1py        0.000000  0.023936 -0.004826 -0.007559  0.000000  0.006863
                     18        19        20        21        22        23   
                   0.10265   0.12333   0.13159   0.13992   0.16222   0.16317
                   0.00000   0.00000   0.00000   0.00000   0.00000   0.00000
                  --------  --------  --------  --------  --------  --------
  0C   1s         0.000151  0.000000 -0.018262 -0.039698 -0.012717  0.000000
  0C   2s         0.002810  0.000000 -0.038139 -0.090099 -0.028822  0.000000
  0C   3s        -0.054767  0.000000 -0.012275  0.250950  0.093295 -0.000000
  0C   4s         0.225209 -0.000000  0.647109 -0.156022 -0.164249  0.000001
  0C   5s        -1.822699 -0.000000 -0.044315  5.520648 -0.455622  0.000003
  0C   1pz       -0.000000 -0.021657  0.000000  0.000000 -0.000000 -0.001840
  0C   1px       -0.027363  0.000000 -0.023924 -0.102810 -0.006664  0.000000
  0C   1py        0.025265  0.000000 -0.096283 -0.088695 -0.048640  0.000000
  0C   2pz       -0.000000 -0.065447  0.000000  0.000000 -0.000001 -0.149648
  0C   2px        0.032324 -0.000000  0.116757  0.003470  0.045194 -0.000000
  0C   2py       -0.047684 -0.000000  0.096020 -0.133763 -0.081304  0.000000
[...]
 2 O  f-1             0.0       0.2       0.0       0.0      12.9       0.0
 2 O  f+2             8.6       0.0       9.0      41.3       0.0      12.7
 2 O  f-2            27.8       0.0      16.3       9.3       0.0      13.1
 2 O  f+3             0.0       0.5       0.0       0.0       0.3       0.0
 2 O  f-3             0.0       0.0       0.0       0.0      19.3       0.0
 3 H  s               0.0       0.3       0.0       0.0       0.2       0.0
 3 H  py              0.0       0.0       0.0       0.0       0.1       0.0
 4 H  s               0.0       0.0       0.0       0.0       0.4       0.0
 4 H  pz              0.0       0.0       0.2       1.8       0.0       0.6
 4 H  px              0.0       0.0       0.0       0.0       0.5       0.0
 4 H  py              0.0       0.0       0.0       0.0       0.2       0.0

                     96        97        98        99       100       101   
                   5.57132   5.63608   5.84311   5.90162   6.11102   6.16489
                   0.00000   0.00000   0.00000   0.00000   0.00000   0.00000
                  --------  --------  --------  --------  --------  --------
 0 C  s               1.0       1.0       0.0       0.5       0.0       0.1
 0 C  pz              0.0       0.0       0.5       0.0       0.8       0.0
 0 C  px              0.0       2.3       0.0       0.4       0.0       0.4
 0 C  py              0.4       0.2       0.0       1.6       0.0       1.1
 0 C  dz2             0.0       1.7       0.0       0.1       0.0       0.1
 0 C  dxz             0.0       0.0       0.7       0.0       0.1       0.0
 0 C  dyz             0.0       0.0       0.3       0.0       7.2       0.0
 0 C  dx2y2           0.3       1.7       0.0       0.5       0.0       0.3
 0 C  dxy             1.4       0.1       0.0       5.4       0.0       0.1
 0 C  f0              0.0       0.0       1.5       0.0       1.1       0.0
 0 C  f+1             0.0       1.5       0.0       0.1       0.0       0.1
 0 C  f-1             2.6       0.1       0.0       1.2       0.0       0.1
 0 C  f+2             0.0       0.0       0.2       0.0       3.3       0.0
 0 C  f-2             0.0       0.0       8.1       0.0       0.0       0.0
 0 C  f+3             1.4       0.0       0.0       0.9       0.0       0.7
 0 C  f-3             3.9       0.5       0.0       1.0       0.0       0.8
 1 O  s               0.1       0.1       0.0       0.4       0.0       1.6
 1 O  pz              0.0       0.0       0.0       0.0       2.3       0.0
 1 O  px              0.0       0.3       0.0       0.0       0.0       0.1
 1 O  py              0.0       0.1       0.0       0.5       0.0       1.4
 1 O  dz2             1.1       1.7       0.0       1.9       0.0       2.3
 1 O  dxz             0.0       0.0       4.1       0.0       0.0       0.0
 1 O  dyz             0.0       0.0       0.1       0.0      33.2       0.0
 1 O  dx2y2           0.3       0.1       0.0       0.6       0.0       0.5
 1 O  dxy             1.2       2.4       0.0       2.9       0.0       0.6
 1 O  f0              0.0       0.0       1.1       0.0      14.9       0.0
 1 O  f+1             0.1       4.8       0.0       0.3       0.0       0.2
 1 O  f-1            31.7       3.2       0.0      14.6       0.0       5.1
 1 O  f+2             0.0       0.0       0.1       0.0      27.4       0.0
 1 O  f-2             0.0       0.0      24.1       0.0       0.2       0.0
 1 O  f+3             4.5       6.3       0.0       3.5       0.0       6.0
 1 O  f-3            26.1       4.5       0.0       0.0       0.0       0.9
 2 O  s               0.3       1.7       0.0       0.1       0.0       4.0
 2 O  pz              0.0       0.0       1.1       0.0       0.0       0.0
 2 O  px              0.1       1.9       0.0       1.4       0.0       0.8
 2 O  py              0.7       2.2       0.0       1.7       0.0       3.2
 2 O  dz2             0.6       3.7       0.0       0.2       0.0      19.0
 2 O  dxz             0.0       0.0      16.0       0.0       0.1       0.0
 2 O  dyz             0.0       0.0       2.3       0.0       6.2       0.0
 2 O  dx2y2           0.2       0.1       0.0      11.1       0.0      11.4
 2 O  dxy             0.5       4.1       0.0       1.6       0.0       2.0
 2 O  f0              0.0       0.0      11.5       0.0       0.2       0.0
 2 O  f+1             0.1      21.1       0.0       5.4       0.0       0.3
 2 O  f-1             3.7      21.9       0.0       6.1       0.0      10.5
 2 O  f+2             0.0       0.0      16.0       0.0       0.9       0.0
 2 O  f-2             0.0       0.0      12.1       0.0       2.2       0.0
 2 O  f+3            14.6       8.4       0.0      29.0       0.0       0.2
 2 O  f-3             0.8       1.8       0.0       4.2       0.0      20.2
 3 H  s               1.4       0.2       0.0       0.0       0.0       0.1
 3 H  px              0.3       0.0       0.0       0.0       0.0       0.0
 4 H  s               0.3       0.1       0.0       1.4       0.0       4.3
 4 H  px              0.2       0.3       0.0       0.4       0.0       0.3
 4 H  py              0.0       0.0       0.0       0.9       0.0       1.2

                    102       103       104       105       106       107   
                   6.29274   6.35695   6.39694   6.40996   6.56139   6.66439
                   0.00000   0.00000   0.00000   0.00000   0.00000   0.00000
                  --------  --------  --------  --------  --------  --------
 0 C  s               0.0       0.0       1.3       4.6       0.1       0.5
 0 C  pz              0.0       0.3       0.0       0.0       0.0       0.0
 0 C  px              0.0       0.0       0.1       0.0       0.1       0.5
 0 C  py              0.0       0.0       1.2       2.8       0.0       0.3
 0 C  dz2             0.0       0.0       0.7       1.9       0.0       0.0
 0 C  dxz             0.1       0.1       0.0       0.0       0.0       0.0
 0 C  dyz             0.3       0.5       0.0       0.0       0.0       0.0
 0 C  dx2y2           0.0       0.0       1.1       2.6       0.3       1.1
 0 C  dxy             0.0       0.0       0.1       0.9       1.5       0.8
 0 C  f0              0.0       0.2       0.0       0.0       0.0       0.0
 0 C  f+2             0.1       0.3       0.0       0.0       0.0       0.0
 0 C  f-2             0.2       0.8       0.0       0.0       0.0       0.0
 0 C  f+3             0.0       0.0       0.0       0.0       5.6       4.4
 0 C  f-3             0.0       0.0       0.1       0.9       0.0       0.0
 1 O  s               0.0       0.0       0.3       2.9       0.0       0.3
 1 O  pz              0.0       0.1       0.0       0.0       0.0       0.0
 1 O  px              0.0       0.0       0.0       0.0       0.8       1.0
 1 O  py              0.0       0.0       0.7       4.0       0.0       0.1
 1 O  dz2             0.0       0.0      43.3      25.5       0.0       1.5
 1 O  dxz            66.6      23.3       0.0       0.0       0.0       0.0
 1 O  dyz             0.3       0.2       0.0       0.0       0.0       0.0
 1 O  dx2y2           0.0       0.0      37.5       2.7       0.3       0.2
 1 O  dxy             0.0       0.0       0.4       2.2      34.5       4.2
 1 O  f0              0.3       1.4       0.0       0.0       0.0       0.0
 1 O  f+1             0.0       0.0       0.1       0.0       0.1       0.5
 1 O  f-1             0.0       0.0       6.8       4.7       0.0       0.0
 1 O  f+2             0.5       2.6       0.0       0.0       0.0       0.0
 1 O  f-2             2.1       2.8       0.0       0.0       0.0       0.0
 1 O  f+3             0.0       0.0       0.1       0.1       4.1       9.6
 1 O  f-3             0.0       0.0       2.3      28.9       0.1       0.0
 2 O  s               0.0       0.0       0.9       0.4       0.1       1.4
 2 O  pz              0.0       0.1       0.0       0.0       0.0       0.0
 2 O  px              0.0       0.0       0.4       0.2       0.1       1.0
 2 O  py              0.0       0.0       0.3       0.1       0.2       2.4
 2 O  dz2             0.0       0.0       0.2       4.6       2.9      53.5
 2 O  dxz             3.9      26.1       0.0       0.0       0.0       0.0
 2 O  dyz            22.9      37.8       0.0       0.0       0.0       0.0
 2 O  dx2y2           0.0       0.0       0.0       1.2      22.8       1.5
 2 O  dxy             0.0       0.0       1.0       0.3      22.3       1.9
 2 O  f0              0.1       2.6       0.0       0.0       0.0       0.0
 2 O  f+1             0.0       0.0       0.1       0.2       0.6       3.0
 2 O  f-1             0.0       0.0       0.0       0.3       0.0       3.4
 2 O  f+2             1.3       0.5       0.0       0.0       0.0       0.0
 2 O  f-2             1.0       0.2       0.0       0.0       0.0       0.0
 2 O  f+3             0.0       0.0       0.6       1.9       2.4       2.9
 2 O  f-3             0.0       0.0       0.2       5.6       0.1       2.1
 3 H  s               0.0       0.0       0.2       0.2       0.1       0.1
 3 H  px              0.0       0.0       0.0       0.0       0.2       0.0
 3 H  py              0.0       0.0       0.1       0.0       0.3       0.0
 4 H  s               0.0       0.0       0.0       0.2       0.1       1.6
 4 H  pz              0.2       0.2       0.0       0.0       0.0       0.0
 4 H  px              0.0       0.0       0.0       0.1       0.1       0.0

                    108       109       110       111       112       113   
                   6.67384   6.78516   6.90452   6.98896   7.09394   7.22039
                   0.00000   0.00000   0.00000   0.00000   0.00000   0.00000
                  --------  --------  --------  --------  --------  --------
 0 C  s               0.0       0.0       0.2       0.8       4.3       0.6
 0 C  pz              0.9       1.7       0.0       0.0       0.0       0.0
 0 C  px              0.0       0.0       1.1       0.7       0.2       0.1
 0 C  py              0.0       0.0       0.5       0.3       1.4       0.7
 0 C  dz2             0.0       0.0       0.0       0.2       0.1       0.1
 0 C  dxz             1.2       0.0       0.0       0.0       0.0       0.0
 0 C  dyz             0.5       2.9       0.0       0.0       0.0       0.0
 0 C  dx2y2           0.0       0.0       0.0       0.6       0.9       1.1
 0 C  dxy             0.0       0.0       0.6       5.8       0.2       0.8
 0 C  f0              0.3       0.1       0.0       0.0       0.0       0.0
 0 C  f+1             0.0       0.0       0.1       0.2       0.0       0.0
 0 C  f-1             0.0       0.0       0.4       0.1       0.2       0.1
 0 C  f+2             0.3       0.2       0.0       0.0       0.0       0.0
 0 C  f-2             0.4       0.0       0.0       0.0       0.0       0.0
 0 C  f+3             0.0       0.0       0.1       2.8       0.1       1.9
 0 C  f-3             0.0       0.0       0.5       0.0       1.9       0.1
 1 O  s               0.0       0.0       0.2       0.1       2.0       0.2
 1 O  pz              0.0       1.9       0.0       0.0       0.0       0.0
 1 O  px              0.0       0.0       0.3       3.0       0.1       0.1
 1 O  py              0.0       0.0       0.2       0.0       2.7       0.4
 1 O  dz2             0.0       0.0       1.0       0.1      18.5       0.1
 1 O  dxz             3.7       0.2       0.0       0.0       0.0       0.0
 1 O  dyz             0.2      67.7       0.0       0.0       0.0       0.0
 1 O  dx2y2           0.0       0.0       8.6       0.1      40.2       4.2
 1 O  dxy             0.0       0.0      14.0      25.0       4.4       7.9
 1 O  f0              0.0       8.7       0.0       0.0       0.0       0.0
 1 O  f+1             0.0       0.0       0.0       1.6       0.0       0.0
 1 O  f-1             0.0       0.0       0.0       0.0       5.9       0.3
 1 O  f+2             0.2      14.7       0.0       0.0       0.0       0.0
 1 O  f-2             0.0       0.2       0.0       0.0       0.0       0.0
 1 O  f+3             0.0       0.0       1.3      27.7       0.1       0.2
 1 O  f-3             0.0       0.0       2.1       0.1       4.7       2.2
 2 O  s               0.0       0.0       0.8       1.7       0.6       2.1
 2 O  pz              0.9       0.0       0.0       0.0       0.0       0.0
 2 O  px              0.0       0.0       0.3       0.9       0.2       0.1
 2 O  py              0.0       0.0       2.8       0.1       0.1       0.7
 2 O  dz2             0.0       0.0       2.7       3.1       2.5       3.4
 2 O  dxz            51.2       0.6       0.0       0.0       0.0       0.0
 2 O  dyz            25.6       1.0       0.0       0.0       0.0       0.0
 2 O  dx2y2           0.0       0.0       5.4       4.1       0.5      43.1
 2 O  dxy             0.0       0.0      50.0       6.8       5.6       0.4
 2 O  f0              4.2       0.0       0.0       0.0       0.0       0.0
 2 O  f+1             0.0       0.0       0.1       0.5       0.8       0.0
 2 O  f-1             0.0       0.0       4.6       0.1       0.0       2.7
 2 O  f+2             2.8       0.0       0.0       0.0       0.0       0.0
 2 O  f-2             7.6       0.1       0.0       0.0       0.0       0.0
 2 O  f+3             0.0       0.0       0.5       2.1       0.8      14.3
 2 O  f-3             0.0       0.0       0.1      10.3       0.7       6.4
 3 H  s               0.0       0.0       0.0       0.0       0.0       0.2
 4 H  s               0.0       0.0       1.5       0.4       0.2       5.1
 4 H  py              0.0       0.0       0.0       0.1       0.0       0.3

                    114       115       116   
                  22.94538  43.62655  43.71440
                   0.00000   0.00000   0.00000
                  --------  --------  --------
 0 C  s              96.6       0.0       0.0
 0 C  dz2             0.2       0.0       0.0
 0 C  f-3             0.1       0.0       0.0
 1 O  s               0.8      18.8      81.1
 1 O  py              0.6       0.0       0.0
 2 O  s               0.3      81.1      18.8
 2 O  px              0.3       0.0       0.0
 2 O  py              0.2       0.0       0.0
 2 O  dxy             0.1       0.0       0.0
 3 H  s               0.2       0.0       0.0


                      *****************************
                      * MAYER POPULATION ANALYSIS *
                      *****************************

  NA   - Mulliken gross atomic population
  ZA   - Total nuclear charge
  QA   - Mulliken gross atomic charge
  VA   - Mayer's total valence
  BVA  - Mayer's bonded valence
  FA   - Mayer's free valence

  ATOM       NA         ZA         QA         VA         BVA        FA
  0 C      5.7959     6.0000     0.2041     4.1224     4.1224     0.0000
  1 O      8.3211     8.0000    -0.3211     2.0698     2.0698     0.0000
  2 O      8.2923     8.0000    -0.2923     1.9031     1.9031    -0.0000
  3 H      0.9034     1.0000     0.0966     0.9659     0.9659     0.0000
  4 H      0.6873     1.0000     0.3127     0.9155     0.9155    -0.0000

  Mayer bond orders larger than 0.1
B(  0-C ,  1-O ) :   2.0253 B(  0-C ,  2-O ) :   1.1164 B(  0-C ,  3-H ) :   0.9505 
B(  2-O ,  4-H ) :   0.8580 

-------
TIMINGS
-------

Total SCF time: 0 days 0 hours 0 min 9 sec 

Total time                  ....       9.102 sec
Sum of individual times     ....       9.019 sec  ( 99.1%)

Fock matrix formation       ....       7.956 sec  ( 87.4%)
  Split-RI-J                ....       0.908 sec  ( 11.4% of F)
  Chain of spheres X        ....       5.524 sec  ( 69.4% of F)
  COS-X 1 center corr.      ....       0.000 sec  (  0.0% of F)
  XC integration            ....       1.452 sec  ( 18.2% of F)
    Basis function eval.    ....       0.397 sec  ( 27.3% of XC)
    Density eval.           ....       0.271 sec  ( 18.6% of XC)
    XC-Functional eval.     ....       0.114 sec  (  7.9% of XC)
    XC-Potential eval.      ....       0.600 sec  ( 41.3% of XC)
Diagonalization             ....       0.004 sec  (  0.0%)
Density matrix formation    ....       0.001 sec  (  0.0%)
Population analysis         ....       0.164 sec  (  1.8%)
Initial guess               ....       0.003 sec  (  0.0%)
Orbital Transformation      ....       0.000 sec  (  0.0%)
Orbital Orthonormalization  ....       0.001 sec  (  0.0%)
DIIS solution               ....       0.000 sec  (  0.0%)
SOSCF solution              ....       0.013 sec  (  0.1%)
Grid generation             ....       0.878 sec  (  9.6%)


-------------------------------------------------------------------------------
                          DFT DISPERSION CORRECTION                            
                                                                               
                              DFTD3 V3.1  Rev 1                                
                          USING Becke-Johnson damping                          
-------------------------------------------------------------------------------
The B3LYP functional is recognized
Active option DFTDOPT                   ...         4   

molecular C6(AA) [au] = 233.023697 


            DFT-D V3
 parameters
 s6 scaling factor         :     1.0000 
 a1 scaling factor         :     0.3981 
 s8 scaling factor         :     1.9889 
 a2 scaling factor         :     4.4211 
 ad hoc parameters k1-k3   :    16.0000     1.3333    -4.0000 

 Edisp/kcal,au: -1.912411325888  -0.003047621113 
 E6   /kcal   :  -0.942460163 
 E8   /kcal   :  -0.969951163 
 % E8         :  50.718752267 

-------------------------   ----------------
Dispersion correction           -0.003047621
-------------------------   ----------------


-------------------------   --------------------
FINAL SINGLE POINT ENERGY      -189.756792156687
-------------------------   --------------------

                                *** OPTIMIZATION RUN DONE ***

                            ***************************************
                            *     ORCA property calculations      *
                            ***************************************

                                    ---------------------
                                    Active property flags
                                    ---------------------
   (+) Dipole Moment


------------------------------------------------------------------------------
                       ORCA ELECTRIC PROPERTIES CALCULATION
------------------------------------------------------------------------------

Dipole Moment Calculation                       ... on
Quadrupole Moment Calculation                   ... off
Polarizability Calculation                      ... off
GBWName                                         ... /nobackup/pmljrh/data/HTC-structures/formic_acid/formic_acid.gbw
Electron density file                           ... /nobackup/pmljrh/data/HTC-structures/formic_acid/formic_acid.scfp.tmp

-------------
DIPOLE MOMENT
-------------
                                X             Y             Z
Electronic contribution:      0.29876       0.83678      -0.00002
Nuclear contribution   :     -0.62249      -2.38049       0.00002
                        -----------------------------------------
Total Dipole Moment    :     -0.32373      -1.54370      -0.00001
                        -----------------------------------------
Magnitude (a.u.)       :      1.57728
Magnitude (Debye)      :      4.00914


Timings for individual modules:

Sum of individual times         ...      131.129 sec (=   2.185 min)
GTO integral calculation        ...        2.247 sec (=   0.037 min)   1.7 %
SCF iterations                  ...       99.552 sec (=   1.659 min)  75.9 %
SCF Gradient evaluation         ...       28.947 sec (=   0.482 min)  22.1 %
Geometry relaxation             ...        0.383 sec (=   0.006 min)   0.3 %
                             ****ORCA TERMINATED NORMALLY****
TOTAL RUN TIME: 0 days 0 hours 2 minutes 12 seconds 638 msec
