
                                 *****************
                                 * O   R   C   A *
                                 *****************

           --- An Ab Initio, DFT and Semiempirical electronic structure package ---

                  #######################################################
                  #                        -***-                        #
                  #  Department of molecular theory and spectroscopy    #
                  #              Directorship: Frank Neese              #
                  # Max Planck Institute for Chemical Energy Conversion #
                  #                  D-45470 Muelheim/Ruhr              #
                  #                       Germany                       #
                  #                                                     #
                  #                  All rights reserved                #
                  #                        -***-                        #
                  #######################################################


                         Program Version 4.0.0.2 - RELEASE -


 With contributions from (in alphabetic order):
   Daniel Aravena         : Magnetic Properties
   Michael Atanasov       : Ab Initio Ligand Field Theory
   Ute Becker             : Parallelization
   Martin Brehm           : Molecular dynamics
   Dmytro Bykov           : SCF Hessian
   Vijay G. Chilkuri      : MRCI spin determinant printing
   Dipayan Datta          : RHF DLPNO-CCSD density
   Achintya Kumar Dutta   : EOM-CC, STEOM-CC
   Dmitry Ganyushin       : Spin-Orbit,Spin-Spin,Magnetic field MRCI
   Yang Guo               : DLPNO-NEVPT2, CIM, IAO-localization
   Andreas Hansen         : Spin unrestricted coupled pair/coupled cluster methods
   Lee Huntington         : MR-EOM, pCC
   Robert Izsak           : Overlap fitted RIJCOSX, COSX-SCS-MP3, EOM
   Christian Kollmar      : KDIIS, OOCD, Brueckner-CCSD(T), CCSD density
   Simone Kossmann        : Meta GGA functionals, TD-DFT gradient, OOMP2, MP2 Hessian
   Martin Krupicka        : AUTO-CI
   Dagmar Lenk            : GEPOL surface
   Dimitrios Liakos       : Extrapolation schemes; parallel MDCI
   Dimitrios Manganas     : ROCIS; embedding schemes
   Dimitrios Pantazis     : SARC Basis sets
   Taras Petrenko         : DFT Hessian,TD-DFT gradient, ASA, ECA, R-Raman, ABS, FL, XAS/XES, NRVS
   Peter Pinski           : DLPNO-MP2
   Christoph Reimann      : Effective Core Potentials
   Marius Retegan         : Local ZFS, SOC
   Christoph Riplinger    : Optimizer, TS searches, QM/MM, DLPNO-CCSD(T), (RO)-DLPNO pert. Triples
   Tobias Risthaus        : Range-separated hybrids, TD-DFT gradient, RPA, STAB
   Michael Roemelt        : Restricted open shell CIS
   Masaaki Saitow         : Open-shell DLPNO
   Barbara Sandhoefer     : DKH picture change effects
   Kantharuban Sivalingam : CASSCF convergence, NEVPT2, FIC-MRCI
   Georgi Stoychev        : AutoAux
   Boris Wezisla          : Elementary symmetry handling
   Frank Wennmohs         : Technical directorship


 We gratefully acknowledge several colleagues who have allowed us to
 interface, adapt or use parts of their codes:
   Stefan Grimme, W. Hujo, H. Kruse,             : VdW corrections, initial TS optimization,
                  C. Bannwarth                     DFT functionals, gCP, sTDA/sTD-DF
   Ed Valeev                                     : LibInt (2-el integral package), F12 methods
   Garnet Chan, S. Sharma, J. Yang, R. Olivares  : DMRG
   Ulf Ekstrom                                   : XCFun DFT Library
   Mihaly Kallay                                 : mrcc  (arbitrary order and MRCC methods)
   Jiri Pittner, Ondrej Demel                    : Mk-CCSD
   Frank Weinhold                                : gennbo (NPA and NBO analysis)
   Christopher J. Cramer and Donald G. Truhlar   : smd solvation model


 Your calculation uses the libint2 library for the computation of 2-el integrals
 For citations please refer to: http://libint.valeyev.net

 This ORCA versions uses:
   CBLAS   interface :  Fast vector & matrix operations
   LAPACKE interface :  Fast linear algebra routines
   SCALAPACK package :  Parallel linear algebra routines


Your calculation utilizes the atom-pairwise dispersion correction
with the Becke-Johnson damping scheme (D3BJ)
Cite in your paper:
S.Grimme, S.Ehrlich, L.Goerigk, J Comput Chem, (2011), 32, 1456–1465 
S.Grimme, J.Antony, S.Ehrlich and H.Krieg, J.Chem.Phys., 132, (2010), 154104 
   

Your calculation utilizes the basis: ma-def2-TZVP
   F. Weigend and R. Ahlrichs, Phys. Chem. Chem. Phys. 7, 3297 (2005).
   J. Zheng, X. Xu and D. G. Truhlar, Theor. Chem. Acc. 128, 295 (2011).

Your calculation utilizes the auxiliary basis: def2/J
   F. Weigend, Phys. Chem. Chem. Phys. 8, 1057 (2006).

================================================================================
                                        WARNINGS
                       Please study these warnings very carefully!
================================================================================

Warning: TCutStore was < 0. Adjusted to Thresh (uncritical)

WARNING: Geometry Optimization
  ===> : Switching off AutoStart
         For restart on a previous wavefunction, please use MOREAD

INFO   : the flag for use of LIBINT has been found!

================================================================================
                                       INPUT FILE
================================================================================
NAME = /nobackup/pmljrh/data/HTC-structures/DHA/DHA.inp
|  1> # avogadro generated ORCA input file
|  2> # Basic Mode
|  3> # DHA-GeomOpt
|  4> ! B3LYP RIJCOSX D3 ma-def2-TZVP def2/J Opt TIGHTSCF Grid3 FinalGrid5
|  5> ! Normalprint
|  6> %output
|  7> Print[ P_Basis ] 2
|  8> Print[ P_MOs ] 1
|  9> End  
| 10> 
| 11> * xyz 0 1
| 12>    O       -3.38680        2.58200        0.07835
| 13>    C       -2.31863        3.48445        0.17052
| 14>    C       -1.00533        2.75726        0.08544
| 15>    H       -2.36321        4.01883        1.14518
| 16>    H       -2.37223        4.21459       -0.66706
| 17>    C        0.27694        3.53858        0.16346
| 18>    H       -4.21358        3.12734        0.14142
| 19>    O        1.38130        2.68143        0.06538
| 20>    H        0.30451        4.07446        1.13792
| 21>    H        0.29551        4.27022       -0.67431
| 22>    H        2.18495        3.26077        0.12401
| 23>    O       -0.98034        1.54137       -0.04603
| 24> *
| 25> 
| 26>                          ****END OF INPUT****
================================================================================

                       *****************************
                       * Geometry Optimization Run *
                       *****************************

Geometry optimization settings:
Update method            Update   .... BFGS
Choice of coordinates    CoordSys .... Redundant Internals
Initial Hessian          InHess   .... Almoef's Model

Convergence Tolerances:
Energy Change            TolE     ....  5.0000e-06 Eh
Max. Gradient            TolMAXG  ....  3.0000e-04 Eh/bohr
RMS Gradient             TolRMSG  ....  1.0000e-04 Eh/bohr
Max. Displacement        TolMAXD  ....  4.0000e-03 bohr
RMS Displacement         TolRMSD  ....  2.0000e-03 bohr

------------------------------------------------------------------------------
                        ORCA OPTIMIZATION COORDINATE SETUP
------------------------------------------------------------------------------

The optimization will be done in new redundant internal coordinates
Making redundant internal coordinates   ...  (new redundants) done
Evaluating the initial hessian          ...  (Almloef) done
Evaluating the coordinates              ...  done
Calculating the B-matrix                .... done
Calculating the G-matrix                .... done
Diagonalizing the G-matrix              .... done
The first mode is                       ....   16
The number of degrees of freedom        ....   30

    -----------------------------------------------------------------
                    Redundant Internal Coordinates


    -----------------------------------------------------------------
         Definition                    Initial Value    Approx d2E/dq
    -----------------------------------------------------------------
      1. B(C   1,O   0)                  1.4014         0.536662   
      2. B(C   2,C   1)                  1.5036         0.411627   
      3. B(H   3,C   1)                  1.1124         0.331612   
      4. B(H   4,C   1)                  1.1124         0.331608   
      5. B(C   5,C   2)                  1.5036         0.411645   
      6. B(H   6,O   0)                  0.9924         0.461540   
      7. B(O   7,C   5)                  1.4014         0.536635   
      8. B(H   8,C   5)                  1.1124         0.331618   
      9. B(H   9,C   5)                  1.1124         0.331618   
     10. B(H  10,O   7)                  0.9924         0.461551   
     11. B(O  11,C   2)                  1.2232         1.032625   
     12. A(C   1,O   0,H   6)          106.0785         0.353839   
     13. A(H   3,C   1,H   4)          110.0266         0.283447   
     14. A(O   0,C   1,H   3)          109.6590         0.337642   
     15. A(C   2,C   1,H   4)          108.4762         0.325096   
     16. A(C   2,C   1,H   3)          108.4757         0.325097   
     17. A(O   0,C   1,C   2)          110.5233         0.390899   
     18. A(O   0,C   1,H   4)          109.6587         0.337642   
     19. A(C   5,C   2,O  11)          120.3097         0.439107   
     20. A(C   1,C   2,O  11)          120.3085         0.439103   
     21. A(C   1,C   2,C   5)          119.3817         0.375669   
     22. A(H   8,C   5,H   9)          110.0266         0.283450   
     23. A(O   7,C   5,H   9)          109.6582         0.337640   
     24. A(C   2,C   5,H   9)          108.4769         0.325100   
     25. A(O   7,C   5,H   8)          109.6585         0.337641   
     26. A(C   2,C   5,H   8)          108.4761         0.325100   
     27. A(C   2,C   5,O   7)          110.5231         0.390899   
     28. A(C   5,O   7,H  10)          106.0784         0.353837   
     29. D(C   2,C   1,O   0,H   6)    179.9969         0.022898   
     30. D(H   4,C   1,O   0,H   6)    -60.4610         0.022898   
     31. D(H   3,C   1,O   0,H   6)     60.4552         0.022898   
     32. D(C   5,C   2,C   1,H   4)     59.7469         0.012545   
     33. D(C   5,C   2,C   1,H   3)    -59.7470         0.012545   
     34. D(C   5,C   2,C   1,O   0)    179.9999         0.012545   
     35. D(O  11,C   2,C   1,H   3)    120.2535         0.012545   
     36. D(O  11,C   2,C   1,H   4)   -120.2527         0.012545   
     37. D(O  11,C   2,C   1,O   0)      0.0004         0.012545   
     38. D(H   9,C   5,C   2,C   1)    -59.7472         0.012547   
     39. D(H   8,C   5,C   2,O  11)   -120.2531         0.012547   
     40. D(H   8,C   5,C   2,C   1)     59.7473         0.012547   
     41. D(O   7,C   5,C   2,O  11)     -0.0004         0.012547   
     42. D(H   9,C   5,C   2,O  11)    120.2523         0.012547   
     43. D(O   7,C   5,C   2,C   1)   -180.0000         0.012547   
     44. D(H  10,O   7,C   5,H   9)     60.4603         0.022895   
     45. D(H  10,O   7,C   5,H   8)    -60.4553         0.022895   
     46. D(H  10,O   7,C   5,C   2)   -179.9972         0.022895   
    -----------------------------------------------------------------

Number of atoms                         .... 12
Number of degrees of freedom            .... 46

         *************************************************************
         *                GEOMETRY OPTIMIZATION CYCLE   1            *
         *************************************************************
---------------------------------
CARTESIAN COORDINATES (ANGSTROEM)
---------------------------------
  O     -3.386800    2.582000    0.078350
  C     -2.318630    3.484450    0.170520
  C     -1.005330    2.757260    0.085440
  H     -2.363210    4.018830    1.145180
  H     -2.372230    4.214590   -0.667060
  C      0.276940    3.538580    0.163460
  H     -4.213580    3.127340    0.141420
  O      1.381300    2.681430    0.065380
  H      0.304510    4.074460    1.137920
  H      0.295510    4.270220   -0.674310
  H      2.184950    3.260770    0.124010
  O     -0.980340    1.541370   -0.046030

----------------------------
CARTESIAN COORDINATES (A.U.)
----------------------------
  NO LB      ZA    FRAG     MASS         X           Y           Z
   0 O     8.0000    0    15.999   -6.400124    4.879273    0.148060
   1 C     6.0000    0    12.011   -4.381576    6.584656    0.322236
   2 C     6.0000    0    12.011   -1.899798    5.210466    0.161458
   3 H     1.0000    0     1.008   -4.465820    7.594488    2.164077
   4 H     1.0000    0     1.008   -4.482865    7.964421   -1.260561
   5 C     6.0000    0    12.011    0.523341    6.686947    0.308895
   6 H     1.0000    0     1.008   -7.962512    5.909816    0.267245
   7 O     8.0000    0    15.999    2.610279    5.067168    0.123550
   8 H     1.0000    0     1.008    0.575441    7.699614    2.150357
   9 H     1.0000    0     1.008    0.558433    8.069546   -1.274261
  10 H     1.0000    0     1.008    4.128957    6.161962    0.234345
  11 O     8.0000    0    15.999   -1.852574    2.912767   -0.086984

--------------------------------
INTERNAL COORDINATES (ANGSTROEM)
--------------------------------
 O      0   0   0     0.000000000000     0.00000000     0.00000000
 C      1   0   0     1.401391615609     0.00000000     0.00000000
 C      2   1   0     1.503595953872   110.52328009     0.00000000
 H      2   1   3     1.112434931311   109.65900093   240.45828776
 H      2   1   3     1.112437699829   109.65873760   119.54216982
 C      3   2   1     1.503583857222   119.38174763   179.99994935
 H      1   2   3     0.992440783574   106.07846048   179.99687835
 O      6   3   2     1.401405301296   110.52306421   180.00004440
 H      6   3   2     1.112429670092   108.47614762    59.74734834
 H      6   3   2     1.112430001124   108.47688551   300.25278492
 H      8   6   3     0.992434196811   106.07844547   180.00282601
 O      3   2   1     1.223232338152   120.30854666     0.00000000

---------------------------
INTERNAL COORDINATES (A.U.)
---------------------------
 O      0   0   0     0.000000000000     0.00000000     0.00000000
 C      1   0   0     2.648246359875     0.00000000     0.00000000
 C      2   1   0     2.841384568890   110.52328009     0.00000000
 H      2   1   3     2.102197361985   109.65900093   240.45828776
 H      2   1   3     2.102202593725   109.65873760   119.54216982
 C      3   2   1     2.841361709535   119.38174763   179.99994935
 H      1   2   3     1.875441285088   106.07846048   179.99687835
 O      6   3   2     2.648272222074   110.52306421   180.00004440
 H      6   3   2     2.102187419721   108.47614762    59.74734834
 H      6   3   2     2.102188045281   108.47688551   300.25278492
 H      8   6   3     1.875428837911   106.07844547   180.00282601
 O      3   2   1     2.311574117263   120.30854666     0.00000000

---------------------
BASIS SET INFORMATION
---------------------
There are 3 groups of distinct atoms

 Group   1 Type O   : 12s7p2d1f contracted to 6s4p2d1f pattern {621111/4111/11/1}
 Group   2 Type C   : 12s7p2d1f contracted to 6s4p2d1f pattern {621111/4111/11/1}
 Group   3 Type H   : 5s1p contracted to 3s1p pattern {311/1}

Atom   0O    basis set group =>   1
Atom   1C    basis set group =>   2
Atom   2C    basis set group =>   2
Atom   3H    basis set group =>   3
Atom   4H    basis set group =>   3
Atom   5C    basis set group =>   2
Atom   6H    basis set group =>   3
Atom   7O    basis set group =>   1
Atom   8H    basis set group =>   3
Atom   9H    basis set group =>   3
Atom  10H    basis set group =>   3
Atom  11O    basis set group =>   1

-------------------------
BASIS SET IN INPUT FORMAT
-------------------------

 # Basis set for element : H 
 NewGTO H 
 S 3 
   1      34.0613410000      0.0254393072
   2       5.1235746000      0.1900859489
   3       1.1646626000      0.8524411301
 S 1 
   1       0.3272304100      1.0000000000
 S 1 
   1       0.1030724100      1.0000000000
 P 1 
   1       0.8000000000      1.0000000000
  end;

 # Basis set for element : C 
 NewGTO C 
 S 6 
   1   13575.3496820000      0.0006064549
   2    2035.2333680000      0.0046979088
   3     463.2256235900      0.0243324776
   4     131.2001959800      0.0973999683
   5      42.8530158910      0.3019558425
   6      15.5841857660      0.6623360915
 S 2 
   1       6.2067138508      0.6559530854
   2       2.5764896527      0.3758563329
 S 1 
   1       0.5769633942      1.0000000000
 S 1 
   1       0.2297283136      1.0000000000
 S 1 
   1       0.0951644400      1.0000000000
 P 4 
   1      34.6972322440      0.0113272200
   2       7.9582622826      0.0761696592
   3       2.3780826883      0.3019225220
   4       0.8143320818      0.7278502735
 P 1 
   1       0.2888754725      1.0000000000
 P 1 
   1       0.1005682367      1.0000000000
 D 1 
   1       1.0970000000      1.0000000000
 D 1 
   1       0.3180000000      1.0000000000
 F 1 
   1       0.7610000000      1.0000000000
 S 1 
   1       0.0317214800      1.0000000000
 P 1 
   1       0.0335227456      1.0000000000
  end;

 # Basis set for element : O 
 NewGTO O 
 S 6 
   1   27032.3826310000      0.0005722733
   2    4052.3871392000      0.0044353233
   3     922.3272271000      0.0230201076
   4     261.2407098900      0.0928224906
   5      85.3546413510      0.2937850002
   6      31.0350352450      0.6740160450
 S 2 
   1      12.2608607280      0.6383993702
   2       4.9987076005      0.3953458713
 S 1 
   1       1.1703108158      1.0000000000
 S 1 
   1       0.4647474099      1.0000000000
 S 1 
   1       0.1850453636      1.0000000000
 P 4 
   1      63.2749548010      0.0120183321
   2      14.6270493790      0.0830054217
   3       4.4501223456      0.3199174393
   4       1.5275799647      0.7071554292
 P 1 
   1       0.5293511794      1.0000000000
 P 1 
   1       0.1747842127      1.0000000000
 D 1 
   1       2.3140000000      1.0000000000
 D 1 
   1       0.6450000000      1.0000000000
 F 1 
   1       1.4280000000      1.0000000000
 S 1 
   1       0.0616817879      1.0000000000
 P 1 
   1       0.0582614042      1.0000000000
  end;

-------------------------------
AUXILIARY BASIS SET INFORMATION
-------------------------------
There are 3 groups of distinct atoms

 Group   1 Type O   : 12s5p4d2f1g contracted to 6s4p3d1f1g pattern {711111/2111/211/2/1}
 Group   2 Type C   : 12s5p4d2f1g contracted to 6s4p3d1f1g pattern {711111/2111/211/2/1}
 Group   3 Type H   : 5s2p1d contracted to 3s1p1d pattern {311/2/1}

Atom   0O    basis set group =>   1
Atom   1C    basis set group =>   2
Atom   2C    basis set group =>   2
Atom   3H    basis set group =>   3
Atom   4H    basis set group =>   3
Atom   5C    basis set group =>   2
Atom   6H    basis set group =>   3
Atom   7O    basis set group =>   1
Atom   8H    basis set group =>   3
Atom   9H    basis set group =>   3
Atom  10H    basis set group =>   3
Atom  11O    basis set group =>   1

-----------------------------------
AUXILIARY BASIS SET IN INPUT FORMAT
-----------------------------------

 # Auxiliary basis set for element : H 
 NewAuxGTO H 
 S 3 
   1      15.6752927000      0.1007184237
   2       3.6063578000      0.3404257499
   3       1.2080016000      0.6491996172
 S 1 
   1       0.4726794000      1.0000000000
 S 1 
   1       0.2018100000      1.0000000000
 P 2 
   1       2.0281365000      0.5596620919
   2       0.5358730000      0.5596620919
 D 1 
   1       2.2165124000      1.0000000000
  end;

 # Auxiliary basis set for element : C 
 NewAuxGTO C 
 S 7 
   1    1861.0916331000      0.0134602335
   2     642.9939764000      0.0299160374
   3     235.1105725000      0.1008649584
   4      90.7028894000      0.2370970548
   5      36.7794552000      0.3924037254
   6      15.6046273000      0.3195862154
   7       6.8907294000      0.0530104441
 S 1 
   1       3.1478850000     -1.0000000000
 S 1 
   1       1.4777287000      1.0000000000
 S 1 
   1       0.7076466000      1.0000000000
 S 1 
   1       0.3430122000      1.0000000000
 S 1 
   1       0.1669453000      1.0000000000
 P 2 
   1      13.5472892000     -0.6769313712
   2       5.4669419000     -0.3779500978
 P 1 
   1       2.1751721000      1.0000000000
 P 1 
   1       0.8582194000      1.0000000000
 P 1 
   1       0.3376720000      1.0000000000
 D 2 
   1       5.9287253000     -0.3533329857
   2       1.9809209000     -0.7456525731
 D 1 
   1       0.8055417000     -1.0000000000
 D 1 
   1       0.3531244000     -1.0000000000
 F 2 
   1       1.6755626000      0.6311076882
   2       0.5997536000      0.4968166032
 G 1 
   1       1.0024600000     -1.0000000000
  end;

 # Auxiliary basis set for element : O 
 NewAuxGTO O 
 S 7 
   1    2876.8216605000      0.0168151159
   2    1004.7443032000      0.0340137548
   3     369.7579954000      0.1194951309
   4     142.9442404000      0.2664627624
   5      57.8366425000      0.4202764046
   6      24.3864983000      0.2765077335
   7      10.6622662000      0.0057008815
 S 1 
   1       4.8070437000     -1.0000000000
 S 1 
   1       2.2210770000      1.0000000000
 S 1 
   1       1.0447795000      1.0000000000
 S 1 
   1       0.4968425000      1.0000000000
 S 1 
   1       0.2371384000      1.0000000000
 P 2 
   1      64.2613382000     -0.2731534179
   2      16.3006076000     -0.8168011598
 P 1 
   1       4.3550542000      1.0000000000
 P 1 
   1       1.2019554000      1.0000000000
 P 1 
   1       0.3354196000      1.0000000000
 D 2 
   1       9.2146611000     -0.4661230638
   2       2.8435251000     -0.6600908911
 D 1 
   1       0.9955759000     -1.0000000000
 D 1 
   1       0.3649441000     -1.0000000000
 F 2 
   1       2.6420115000      0.5931563945
   2       0.7345613000      0.5931563945
 G 1 
   1       1.3931000000     -1.0000000000
  end;

-------------------------
ECP PARAMETER INFORMATION
-------------------------




-------------------------
ECP BASIS IN INPUT FORMAT
-------------------------


------------------------------------------------------------------------------
                           ORCA GTO INTEGRAL CALCULATION
                           -- RI-GTO INTEGRALS CHOSEN --
------------------------------------------------------------------------------

                         BASIS SET STATISTICS AND STARTUP INFO

Gaussian basis set:
 # of primitive gaussian shells          ...  168
 # of primitive gaussian functions       ...  348
 # of contracted shells                  ...  102
 # of contracted basis functions         ...  246
 Highest angular momentum                ...    3
 Maximum contraction depth               ...    6
Auxiliary gaussian basis set:
 # of primitive gaussian shells          ...  192
 # of primitive gaussian functions       ...  516
 # of contracted shells                  ...  120
 # of contracted aux-basis functions     ...  360
 Highest angular momentum                ...    4
 Maximum contraction depth               ...    7
Ratio of auxiliary to basis functions    ...  1.46
Integral package used                  ... LIBINT
 One Electron integrals                  
   ECP integrals                         ... done
 Ordering auxiliary basis shells         ... done
 Integral threshhold             Thresh  ...  2.500e-11
 Primitive cut-off               TCut    ...  2.500e-12
 Pre-screening matrix                    ... done
 Shell pair data                         ... 
 Ordering of the shell pairs             ... done (   0.001 sec) 4928 of 5253 pairs
 Determination of significant pairs      ... done (   0.000 sec)
 Creation of shell pair data             ... done (   0.001 sec)
 Storage of shell pair data              ... done (   0.005 sec)
 Shell pair data done in (   0.006 sec)
 Computing two index integrals           ... done
 Cholesky decomposition of the V-matrix  ... done


Timings:
 Total evaluation time                   ...   0.291 sec (  0.005 min)
 One electron matrix time                ...   0.036 sec (  0.001 min) = 12.4%
 Schwartz matrix evaluation time         ...   0.212 sec (  0.004 min) = 72.6%
 Two index repulsion integral time       ...   0.007 sec (  0.000 min) =  2.3%
 Cholesky decomposition of V             ...   0.005 sec (  0.000 min) =  1.7%
 Three index repulsion integral time     ...   0.000 sec (  0.000 min) =  0.0%

-------------------------------------------------------------------------------
                                 ORCA SCF
-------------------------------------------------------------------------------

------------
SCF SETTINGS
------------
Hamiltonian:
 Density Functional     Method          .... DFT(GTOs)
 Exchange Functional    Exchange        .... B88
   X-Alpha parameter    XAlpha          ....  0.666667
   Becke's b parameter  XBeta           ....  0.004200
 Correlation Functional Correlation     .... LYP
 LDA part of GGA corr.  LDAOpt          .... VWN-5
 Gradients option       PostSCFGGA      .... off
 Hybrid DFT is turned on
   Fraction HF Exchange ScalHFX         ....  0.200000
   Scaling of DF-GGA-X  ScalDFX         ....  0.720000
   Scaling of DF-GGA-C  ScalDFC         ....  0.810000
   Scaling of DF-LDA-C  ScalLDAC        ....  1.000000
   Perturbative correction              ....  0.000000
   NL short-range parameter             ....  4.800000
 RI-approximation to the Coulomb term is turned on
   Number of auxiliary basis functions  .... 360
   RIJ-COSX (HFX calculated with COS-X)).... on


General Settings:
 Integral files         IntName         .... /nobackup/pmljrh/data/HTC-structures/DHA/DHA
 Hartree-Fock type      HFTyp           .... RHF
 Total Charge           Charge          ....    0
 Multiplicity           Mult            ....    1
 Number of Electrons    NEL             ....   48
 Basis Dimension        Dim             ....  246
 Nuclear Repulsion      ENuc            ....    240.1812246205 Eh

Convergence Acceleration:
 DIIS                   CNVDIIS         .... on
   Start iteration      DIISMaxIt       ....    12
   Startup error        DIISStart       ....  0.200000
   # of expansion vecs  DIISMaxEq       ....     5
   Bias factor          DIISBfac        ....   1.050
   Max. coefficient     DIISMaxC        ....  10.000
 Newton-Raphson         CNVNR           .... off
 SOSCF                  CNVSOSCF        .... on
   Start iteration      SOSCFMaxIt      ....   150
   Startup grad/error   SOSCFStart      ....  0.003300
 Level Shifting         CNVShift        .... on
   Level shift para.    LevelShift      ....    0.2500
   Turn off err/grad.   ShiftErr        ....    0.0010
 Zerner damping         CNVZerner       .... off
 Static damping         CNVDamp         .... on
   Fraction old density DampFac         ....    0.7000
   Max. Damping (<1)    DampMax         ....    0.9800
   Min. Damping (>=0)   DampMin         ....    0.0000
   Turn off err/grad.   DampErr         ....    0.1000
 Fernandez-Rico         CNVRico         .... off

SCF Procedure:
 Maximum # iterations   MaxIter         ....   125
 SCF integral mode      SCFMode         .... Direct
   Integral package                     .... LIBINT
 Reset frequeny         DirectResetFreq ....    20
 Integral Threshold     Thresh          ....  2.500e-11 Eh
 Primitive CutOff       TCut            ....  2.500e-12 Eh

Convergence Tolerance:
 Convergence Check Mode ConvCheckMode   .... Total+1el-Energy
 Convergence forced     ConvForced      .... 0
 Energy Change          TolE            ....  1.000e-08 Eh
 1-El. energy change                    ....  1.000e-05 Eh
 Orbital Gradient       TolG            ....  1.000e-05
 Orbital Rotation angle TolX            ....  1.000e-05
 DIIS Error             TolErr          ....  5.000e-07


Diagonalization of the overlap matrix:
Smallest eigenvalue                        ... 1.753e-05
Time for diagonalization                   ...    0.013 sec
Threshold for overlap eigenvalues          ... 1.000e-08
Number of eigenvalues below threshold      ... 0
Time for construction of square roots      ...    0.007 sec
Total time needed                          ...    0.020 sec

-------------------
DFT GRID GENERATION
-------------------

General Integration Accuracy     IntAcc      ...  4.340
Radial Grid Type                 RadialGrid  ... Gauss-Chebyshev
Angular Grid (max. acc.)         AngularGrid ... Lebedev-194
Angular grid pruning method      GridPruning ... 3 (G Style)
Weight generation scheme         WeightScheme... Becke
Basis function cutoff            BFCut       ...    1.0000e-11
Integration weight cutoff        WCut        ...    1.0000e-14
Grids for H and He will be reduced by one unit

# of grid points (after initial pruning)     ...  29076 (   0.0 sec)
# of grid points (after weights+screening)   ...  27412 (   0.0 sec)
nearest neighbour list constructed           ...    0.0 sec
Grid point re-assignment to atoms done       ...    0.0 sec
Grid point division into batches done        ...    0.0 sec
Reduced shell lists constructed in    0.3 sec

Total number of grid points                  ...    27412
Total number of batches                      ...      435
Average number of points per batch           ...       63
Average number of grid points per atom       ...     2284
Average number of shells per batch           ...    72.02 (70.60%)
Average number of basis functions per batch  ...   173.89 (70.69%)
Average number of large shells per batch     ...    59.78 (83.01%)
Average number of large basis fcns per batch ...   142.62 (82.01%)
Maximum spatial batch extension              ...  17.55, 19.96, 20.15 au
Average spatial batch extension              ...   3.04,  3.30,  3.36 au

Time for grid setup =    0.356 sec

------------------------------
INITIAL GUESS: MODEL POTENTIAL
------------------------------
Loading Hartree-Fock densities                     ... done
Calculating cut-offs                               ... done
Setting up the integral package                    ... done
Initializing the effective Hamiltonian             ... done
Starting the Coulomb interaction                   ... done (   0.1 sec)
Reading the grid                                   ... done
Mapping shells                                     ... done
Starting the XC term evaluation                    ... done (   0.7 sec)
  promolecular density results
     # of electrons  =     47.998107523
     EX              =    -41.769720528
     EC              =     -1.653508291
     EX+EC           =    -43.423228820
Transforming the Hamiltonian                       ... done (   0.0 sec)
Diagonalizing the Hamiltonian                      ... done (   0.0 sec)
Back transforming the eigenvectors                 ... done (   0.0 sec)
Now organizing SCF variables                       ... done
                      ------------------
                      INITIAL GUESS DONE (   1.3 sec)
                      ------------------
--------------------
COSX GRID GENERATION
--------------------

General Integration Accuracy     IntAcc      ...  3.340
Radial Grid Type                 RadialGrid  ... Gauss-Chebyshev
Angular Grid (max. acc.)         AngularGrid ... Lebedev-50
Angular grid pruning method      GridPruning ... 3 (G Style)
Weight generation scheme         WeightScheme... Becke
Basis function cutoff            BFCut       ...    1.0000e-11
Integration weight cutoff        WCut        ...    1.0000e-14
Grids for H and He will be reduced by one unit

# of grid points (after initial pruning)     ...   5400 (   0.0 sec)
# of grid points (after weights+screening)   ...   5104 (   0.0 sec)
nearest neighbour list constructed           ...    0.0 sec
Grid point re-assignment to atoms done       ...    0.0 sec
Grid point division into batches done        ...    0.0 sec
Reduced shell lists constructed in    0.1 sec

Total number of grid points                  ...     5104
Total number of batches                      ...       88
Average number of points per batch           ...       58
Average number of grid points per atom       ...      425
Average number of shells per batch           ...    78.97 (77.42%)
Average number of basis functions per batch  ...   193.73 (78.75%)
Average number of large shells per batch     ...    67.21 (85.12%)
Average number of large basis fcns per batch ...   163.33 (84.31%)
Maximum spatial batch extension              ...  14.03, 20.72, 20.72 au
Average spatial batch extension              ...   4.60,  5.49,  5.44 au

Overlap Fitting                  UseSFitting ... on
Constructing numerical overlap ... done (      0.0 sec)
Inverting numerical overlap    ... done (      0.0 sec)
Obtaining analytic overlap     ... done (      0.0 sec)
Final contraction and storage  ... done (      0.0 sec)


General Integration Accuracy     IntAcc      ...  3.670
Radial Grid Type                 RadialGrid  ... Gauss-Chebyshev
Angular Grid (max. acc.)         AngularGrid ... Lebedev-50
Angular grid pruning method      GridPruning ... 3 (G Style)
Weight generation scheme         WeightScheme... Becke
Basis function cutoff            BFCut       ...    1.0000e-11
Integration weight cutoff        WCut        ...    1.0000e-14
Grids for H and He will be reduced by one unit

# of grid points (after initial pruning)     ...   6924 (   0.0 sec)
# of grid points (after weights+screening)   ...   6528 (   0.0 sec)
nearest neighbour list constructed           ...    0.0 sec
Grid point re-assignment to atoms done       ...    0.0 sec
Grid point division into batches done        ...    0.0 sec
Reduced shell lists constructed in    0.1 sec

Total number of grid points                  ...     6528
Total number of batches                      ...      107
Average number of points per batch           ...       61
Average number of grid points per atom       ...      544
Average number of shells per batch           ...    78.15 (76.62%)
Average number of basis functions per batch  ...   191.50 (77.85%)
Average number of large shells per batch     ...    65.88 (84.30%)
Average number of large basis fcns per batch ...   159.18 (83.12%)
Maximum spatial batch extension              ...  14.51, 18.86, 18.51 au
Average spatial batch extension              ...   4.50,  5.36,  5.00 au

Overlap Fitting                  UseSFitting ... on
Constructing numerical overlap ... done (      0.1 sec)
Inverting numerical overlap    ... done (      0.0 sec)
Obtaining analytic overlap     ... done (      0.0 sec)
Final contraction and storage  ... done (      0.0 sec)


General Integration Accuracy     IntAcc      ...  4.010
Radial Grid Type                 RadialGrid  ... Gauss-Chebyshev
Angular Grid (max. acc.)         AngularGrid ... Lebedev-110
Angular grid pruning method      GridPruning ... 3 (G Style)
Weight generation scheme         WeightScheme... Becke
Basis function cutoff            BFCut       ...    1.0000e-11
Integration weight cutoff        WCut        ...    1.0000e-14
Grids for H and He will be reduced by one unit

# of grid points (after initial pruning)     ...  12678 (   0.0 sec)
# of grid points (after weights+screening)   ...  11983 (   0.0 sec)
nearest neighbour list constructed           ...    0.0 sec
Grid point re-assignment to atoms done       ...    0.0 sec
Grid point division into batches done        ...    0.0 sec
Reduced shell lists constructed in    0.1 sec

Total number of grid points                  ...    11983
Total number of batches                      ...      193
Average number of points per batch           ...       62
Average number of grid points per atom       ...      999
Average number of shells per batch           ...    75.57 (74.09%)
Average number of basis functions per batch  ...   183.96 (74.78%)
Average number of large shells per batch     ...    63.24 (83.68%)
Average number of large basis fcns per batch ...   151.90 (82.57%)
Maximum spatial batch extension              ...  15.65, 20.41, 17.34 au
Average spatial batch extension              ...   3.78,  4.51,  4.15 au

Overlap Fitting                  UseSFitting ... on
Constructing numerical overlap ... done (      0.1 sec)
Inverting numerical overlap    ... done (      0.0 sec)
Obtaining analytic overlap     ... done (      0.0 sec)
Final contraction and storage  ... done (      0.0 sec)

Time for X-Grid setup             =    0.565 sec
--------------
SCF ITERATIONS
--------------
               ***  Starting incremental Fock matrix formation  ***

                         ----------------------------
                         !        ITERATION     0   !
                         ----------------------------
   Total Energy        :    -343.263012252440 Eh
   Energy Change       :    -343.263012252440 Eh
   MAX-DP              :       0.064541362384
   RMS-DP              :       0.001926957783
   Actual Damping      :       0.7000
   Actual Level Shift  :       0.2500 Eh
   Int. Num. El.       :    48.00067447 (UP=   24.00033723 DN=   24.00033723)
   Exchange            :   -34.41051508
   Correlation         :    -1.97681210


                         ----------------------------
                         !        ITERATION     1   !
                         ----------------------------
   Total Energy        :    -343.398946985235 Eh
   Energy Change       :      -0.135934732795 Eh
   MAX-DP              :       0.047112407903
   RMS-DP              :       0.001294060669
   Actual Damping      :       0.7000
   Actual Level Shift  :       0.2500 Eh
   Int. Num. El.       :    48.00071629 (UP=   24.00035814 DN=   24.00035814)
   Exchange            :   -33.98039277
   Correlation         :    -1.96334054

                               ***Turning on DIIS***

                         ----------------------------
                         !        ITERATION     2   !
                         ----------------------------
   Total Energy        :    -343.437962873963 Eh
   Energy Change       :      -0.039015888728 Eh
   MAX-DP              :       0.059269651751
   RMS-DP              :       0.001577680392
   Actual Damping      :       0.0000
   Actual Level Shift  :       0.2500 Eh
   Int. Num. El.       :    48.00071169 (UP=   24.00035585 DN=   24.00035585)
   Exchange            :   -33.75147259
   Correlation         :    -1.95540772
   DIIS-Error          :       0.033901309102


                         ----------------------------
                         !        ITERATION     3   !
                         ----------------------------
   Total Energy        :    -343.520064830018 Eh
   Energy Change       :      -0.082101956055 Eh
   MAX-DP              :       0.043409489902
   RMS-DP              :       0.001055988210
   Actual Damping      :       0.0000
   Actual Level Shift  :       0.2500 Eh
   Int. Num. El.       :    48.00066089 (UP=   24.00033045 DN=   24.00033045)
   Exchange            :   -33.54292912
   Correlation         :    -1.94686348
   DIIS-Error          :       0.056403277611
   DIIS coefficients:
      0.58936   0.41064


                         ----------------------------
                         !        ITERATION     4   !
                         ----------------------------
   Total Energy        :    -343.530454159706 Eh
   Energy Change       :      -0.010389329687 Eh
   MAX-DP              :       0.012618639740
   RMS-DP              :       0.000294779604
   Actual Damping      :       0.0000
   Actual Level Shift  :       0.2500 Eh
   Int. Num. El.       :    48.00066558 (UP=   24.00033279 DN=   24.00033279)
   Exchange            :   -33.69872788
   Correlation         :    -1.95251883
   DIIS-Error          :       0.032725579562
   DIIS coefficients:
      0.30267   0.16510   0.53223

                      *** Initiating the SOSCF procedure ***
                           *** Shutting down DIIS ***
                      *** Re-Reading the Fockian *** 
                      *** Removing any level shift *** 

                         ----------------------------
                         !        ITERATION     5   !
                         ----------------------------
   Total Energy        :    -343.532294185233 Eh
   Energy Change       :      -0.001840025528 Eh
   MAX-DP              :       0.010042015112
   RMS-DP              :       0.000148537763
   Orbital gradient    :       0.000811016372
   Orbital Rotation    :       0.000811016372
   Actual Damping      :       0.0000
   Int. Num. El.       :    48.00068662 (UP=   24.00034331 DN=   24.00034331)
   Exchange            :   -33.69052922
   Correlation         :    -1.95281188

               *** Restarting incremental Fock matrix formation ***

                         ----------------------------
                         !        ITERATION     6   !
                         ----------------------------
   Total Energy        :    -343.532340648803 Eh
   Energy Change       :      -0.000046463569 Eh
   MAX-DP              :       0.008708981382
   RMS-DP              :       0.000131584317
   Orbital gradient    :       0.001062940345
   Orbital Rotation    :       0.003212229232
   Actual Damping      :       0.0000
   Int. Num. El.       :    48.00069557 (UP=   24.00034779 DN=   24.00034779)
   Exchange            :   -33.69033470
   Correlation         :    -1.95276882


                         ----------------------------
                         !        ITERATION     7   !
                         ----------------------------
   Total Energy        :    -343.532317926496 Eh
   Energy Change       :       0.000022722307 Eh
   MAX-DP              :       0.001697591192
   RMS-DP              :       0.000037449014
   Orbital gradient    :       0.002496055758
   Orbital Rotation    :       0.002263215673
   Actual Damping      :       0.0000
   Int. Num. El.       :    48.00069885 (UP=   24.00034943 DN=   24.00034943)
   Exchange            :   -33.68665718
   Correlation         :    -1.95267269


                         ----------------------------
                         !        ITERATION     8   !
                         ----------------------------
   Total Energy        :    -343.532350701647 Eh
   Energy Change       :      -0.000032775151 Eh
   MAX-DP              :       0.000424302252
   RMS-DP              :       0.000007960183
   Orbital gradient    :       0.000070206388
   Orbital Rotation    :       0.000103392173
   Actual Damping      :       0.0000
   Int. Num. El.       :    48.00069905 (UP=   24.00034953 DN=   24.00034953)
   Exchange            :   -33.68929650
   Correlation         :    -1.95273426


                         ----------------------------
                         !        ITERATION     9   !
                         ----------------------------
   Total Energy        :    -343.532350567770 Eh
   Energy Change       :       0.000000133877 Eh
   MAX-DP              :       0.000085768729
   RMS-DP              :       0.000003036638
   Orbital gradient    :       0.000105967251
   Orbital Rotation    :       0.000064769516
   Actual Damping      :       0.0000
   Int. Num. El.       :    48.00069924 (UP=   24.00034962 DN=   24.00034962)
   Exchange            :   -33.68929888
   Correlation         :    -1.95274618


                         ----------------------------
                         !        ITERATION    10   !
                         ----------------------------
   Total Energy        :    -343.532350897198 Eh
   Energy Change       :      -0.000000329429 Eh
   MAX-DP              :       0.000033577336
   RMS-DP              :       0.000001223119
   Orbital gradient    :       0.000013258869
   Orbital Rotation    :       0.000025719933
   Actual Damping      :       0.0000
   Int. Num. El.       :    48.00069912 (UP=   24.00034956 DN=   24.00034956)
   Exchange            :   -33.68942963
   Correlation         :    -1.95274490


                         ----------------------------
                         !        ITERATION    11   !
                         ----------------------------
   Total Energy        :    -343.532350879228 Eh
   Energy Change       :       0.000000017970 Eh
   MAX-DP              :       0.000023417763
   RMS-DP              :       0.000000715095
   Orbital gradient    :       0.000015339264
   Orbital Rotation    :       0.000013929510
   Actual Damping      :       0.0000
   Int. Num. El.       :    48.00069910 (UP=   24.00034955 DN=   24.00034955)
   Exchange            :   -33.68921291
   Correlation         :    -1.95273597

                  ***Gradient check signals convergence***
              ***Rediagonalizing the Fockian in SOSCF/NRSCF***

               *****************************************************
               *                     SUCCESS                       *
               *           SCF CONVERGED AFTER  12 CYCLES          *
               *****************************************************

Setting up the final grid:

General Integration Accuracy     IntAcc      ...  5.010
Radial Grid Type                 RadialGrid  ... Gauss-Chebyshev
Angular Grid (max. acc.)         AngularGrid ... Lebedev-434
Angular grid pruning method      GridPruning ... 3 (G Style)
Weight generation scheme         WeightScheme... Becke
Basis function cutoff            BFCut       ...    1.0000e-11
Integration weight cutoff        WCut        ...    1.0000e-14
Grids for H and He will be reduced by one unit

# of grid points (after initial pruning)     ... 104772 (   0.0 sec)
# of grid points (after weights+screening)   ...  97919 (   0.1 sec)
nearest neighbour list constructed           ...    0.0 sec
Grid point re-assignment to atoms done       ...    0.0 sec
Grid point division into batches done        ...    0.7 sec
Reduced shell lists constructed in    1.6 sec

Total number of grid points                  ...    97919
Total number of batches                      ...     1536
Average number of points per batch           ...       63
Average number of grid points per atom       ...     8160
Average number of shells per batch           ...    67.79 (66.46%)
Average number of basis functions per batch  ...   162.53 (66.07%)
Average number of large shells per batch     ...    55.61 (82.04%)
Average number of large basis fcns per batch ...   131.43 (80.87%)
Maximum spatial batch extension              ...  16.95, 21.63, 24.35 au
Average spatial batch extension              ...   2.07,  2.24,  2.23 au

Final grid set up in    1.7 sec
Final integration                            ... done (   2.7 sec)
Change in XC energy                          ...     0.000105377
Integrated number of electrons               ...    48.000000946
Previous integrated no of electrons          ...    48.000699111
Old exchange energy                            =     -8.461464251 Eh
New exchange energy                            =     -8.461128581 Eh
Exchange energy change after final integration =      0.000335670 Eh
Total energy after final integration           =   -343.531909851 Eh
Final COS-X integration done in                =    10.109 sec

----------------
TOTAL SCF ENERGY
----------------

Total Energy       :         -343.53190985 Eh           -9347.97851 eV

Components:
Nuclear Repulsion  :          240.18122462 Eh            6535.66339 eV
Electronic Energy  :         -583.71313447 Eh          -15883.64190 eV
One Electron Energy:         -945.60390423 Eh          -25731.19038 eV
Two Electron Energy:          361.89076976 Eh            9847.54848 eV

Virial components:
Potential Energy   :         -685.54452736 Eh          -18654.61497 eV
Kinetic Energy     :          342.01261751 Eh            9306.63646 eV
Virial Ratio       :            2.00444221


DFT components:
N(Alpha)           :       24.000000472859 electrons
N(Beta)            :       24.000000472859 electrons
N(Total)           :       48.000000945719 electrons
E(X)               :      -33.689233601181 Eh       
E(C)               :       -1.952738325751 Eh       
E(XC)              :      -35.641971926932 Eh       

---------------
SCF CONVERGENCE
---------------

  Last Energy change         ...   -1.8973e-08  Tolerance :   1.0000e-08
  Last MAX-Density change    ...    1.4603e-14  Tolerance :   1.0000e-07
  Last RMS-Density change    ...    1.4225e-16  Tolerance :   5.0000e-09
  Last Orbital Gradient      ...    9.2920e-07  Tolerance :   1.0000e-05
  Last Orbital Rotation      ...    9.2079e-07  Tolerance :   1.0000e-05

             **** THE GBW FILE WAS UPDATED (/nobackup/pmljrh/data/HTC-structures/DHA/DHA.gbw) ****
             **** DENSITY FILE WAS UPDATED (/nobackup/pmljrh/data/HTC-structures/DHA/DHA.scfp.tmp) ****
             **** ENERGY FILE WAS UPDATED (/nobackup/pmljrh/data/HTC-structures/DHA/DHA.en.tmp) ****
----------------
ORBITAL ENERGIES
----------------

  NO   OCC          E(Eh)            E(eV) 
   0   2.0000     -19.143404      -520.9185 
   1   2.0000     -19.143391      -520.9181 
   2   2.0000     -19.116455      -520.1852 
   3   2.0000     -10.262986      -279.2701 
   4   2.0000     -10.242643      -278.7165 
   5   2.0000     -10.242633      -278.7162 
   6   2.0000      -1.057252       -28.7693 
   7   2.0000      -1.039316       -28.2812 
   8   2.0000      -1.019293       -27.7364 
   9   2.0000      -0.767599       -20.8874 
  10   2.0000      -0.696237       -18.9456 
  11   2.0000      -0.540633       -14.7114 
  12   2.0000      -0.535080       -14.5603 
  13   2.0000      -0.532694       -14.4953 
  14   2.0000      -0.503571       -13.7029 
  15   2.0000      -0.465448       -12.6655 
  16   2.0000      -0.453334       -12.3359 
  17   2.0000      -0.435578       -11.8527 
  18   2.0000      -0.364678        -9.9234 
  19   2.0000      -0.362486        -9.8637 
  20   2.0000      -0.360291        -9.8040 
  21   2.0000      -0.299718        -8.1557 
  22   2.0000      -0.289591        -7.8802 
  23   2.0000      -0.256980        -6.9928 
  24   0.0000      -0.031653        -0.8613 
  25   0.0000      -0.025324        -0.6891 
  26   0.0000      -0.013340        -0.3630 
  27   0.0000       0.005351         0.1456 
  28   0.0000       0.023157         0.6301 
  29   0.0000       0.032622         0.8877 
  30   0.0000       0.049333         1.3424 
  31   0.0000       0.050160         1.3649 
  32   0.0000       0.069658         1.8955 
  33   0.0000       0.077296         2.1033 
  34   0.0000       0.081162         2.2085 
  35   0.0000       0.086701         2.3593 
  36   0.0000       0.105501         2.8708 
  37   0.0000       0.108226         2.9450 
  38   0.0000       0.117546         3.1986 
  39   0.0000       0.124077         3.3763 
  40   0.0000       0.140209         3.8153 
  41   0.0000       0.154770         4.2115 
  42   0.0000       0.159762         4.3474 
  43   0.0000       0.167337         4.5535 
  44   0.0000       0.172173         4.6851 
  45   0.0000       0.178319         4.8523 
  46   0.0000       0.178625         4.8606 
  47   0.0000       0.196200         5.3389 
  48   0.0000       0.199825         5.4375 
  49   0.0000       0.205171         5.5830 
  50   0.0000       0.215309         5.8589 
  51   0.0000       0.217708         5.9241 
  52   0.0000       0.226502         6.1634 
  53   0.0000       0.228926         6.2294 
  54   0.0000       0.243890         6.6366 
  55   0.0000       0.266670         7.2565 
  56   0.0000       0.267766         7.2863 
  57   0.0000       0.283309         7.7092 
  58   0.0000       0.294626         8.0172 
  59   0.0000       0.314730         8.5642 
  60   0.0000       0.343883         9.3575 
  61   0.0000       0.351004         9.5513 
  62   0.0000       0.368437        10.0257 
  63   0.0000       0.407182        11.0800 
  64   0.0000       0.433081        11.7847 
  65   0.0000       0.442195        12.0327 
  66   0.0000       0.445533        12.1236 
  67   0.0000       0.462521        12.5858 
  68   0.0000       0.471378        12.8268 
  69   0.0000       0.480060        13.0631 
  70   0.0000       0.483598        13.1594 
  71   0.0000       0.498949        13.5771 
  72   0.0000       0.541500        14.7350 
  73   0.0000       0.543505        14.7895 
  74   0.0000       0.598894        16.2967 
  75   0.0000       0.603922        16.4335 
  76   0.0000       0.629324        17.1248 
  77   0.0000       0.637987        17.3605 
  78   0.0000       0.643875        17.5207 
  79   0.0000       0.646794        17.6002 
  80   0.0000       0.653374        17.7792 
  81   0.0000       0.666370        18.1328 
  82   0.0000       0.699122        19.0241 
  83   0.0000       0.702318        19.1111 
  84   0.0000       0.710674        19.3384 
  85   0.0000       0.748950        20.3800 
  86   0.0000       0.750029        20.4093 
  87   0.0000       0.779946        21.2234 
  88   0.0000       0.825439        22.4613 
  89   0.0000       0.861755        23.4495 
  90   0.0000       0.891366        24.2553 
  91   0.0000       0.892508        24.2864 
  92   0.0000       0.913424        24.8555 
  93   0.0000       0.920859        25.0578 
  94   0.0000       0.949706        25.8428 
  95   0.0000       0.960979        26.1496 
  96   0.0000       1.035104        28.1666 
  97   0.0000       1.040974        28.3263 
  98   0.0000       1.083841        29.4928 
  99   0.0000       1.108713        30.1696 
 100   0.0000       1.161300        31.6006 
 101   0.0000       1.172827        31.9142 
 102   0.0000       1.213078        33.0095 
 103   0.0000       1.273133        34.6437 
 104   0.0000       1.302302        35.4374 
 105   0.0000       1.334103        36.3028 
 106   0.0000       1.447967        39.4012 
 107   0.0000       1.484251        40.3885 
 108   0.0000       1.486007        40.4363 
 109   0.0000       1.507106        41.0104 
 110   0.0000       1.518580        41.3227 
 111   0.0000       1.562622        42.5211 
 112   0.0000       1.573251        42.8103 
 113   0.0000       1.574375        42.8409 
 114   0.0000       1.588754        43.2322 
 115   0.0000       1.594622        43.3919 
 116   0.0000       1.643307        44.7167 
 117   0.0000       1.684067        45.8258 
 118   0.0000       1.698917        46.2299 
 119   0.0000       1.739497        47.3341 
 120   0.0000       1.750089        47.6223 
 121   0.0000       1.775015        48.3006 
 122   0.0000       1.856064        50.5061 
 123   0.0000       1.891401        51.4676 
 124   0.0000       1.918043        52.1926 
 125   0.0000       1.947388        52.9911 
 126   0.0000       1.967432        53.5366 
 127   0.0000       1.976536        53.7843 
 128   0.0000       2.056302        55.9548 
 129   0.0000       2.060655        56.0733 
 130   0.0000       2.067714        56.2653 
 131   0.0000       2.075462        56.4762 
 132   0.0000       2.121823        57.7377 
 133   0.0000       2.156615        58.6845 
 134   0.0000       2.196392        59.7669 
 135   0.0000       2.198043        59.8118 
 136   0.0000       2.232217        60.7417 
 137   0.0000       2.264286        61.6144 
 138   0.0000       2.289668        62.3050 
 139   0.0000       2.317639        63.0662 
 140   0.0000       2.346068        63.8398 
 141   0.0000       2.357657        64.1551 
 142   0.0000       2.367518        64.4235 
 143   0.0000       2.396157        65.2028 
 144   0.0000       2.440894        66.4201 
 145   0.0000       2.510863        68.3241 
 146   0.0000       2.557935        69.6050 
 147   0.0000       2.576809        70.1185 
 148   0.0000       2.582415        70.2711 
 149   0.0000       2.588527        70.4374 
 150   0.0000       2.651287        72.1452 
 151   0.0000       2.674217        72.7691 
 152   0.0000       2.693768        73.3012 
 153   0.0000       2.725254        74.1579 
 154   0.0000       2.781462        75.6874 
 155   0.0000       2.811729        76.5110 
 156   0.0000       2.830241        77.0148 
 157   0.0000       2.841383        77.3180 
 158   0.0000       2.855401        77.6994 
 159   0.0000       2.911356        79.2220 
 160   0.0000       2.982627        81.1614 
 161   0.0000       3.004384        81.7535 
 162   0.0000       3.012258        81.9677 
 163   0.0000       3.031668        82.4959 
 164   0.0000       3.046870        82.9095 
 165   0.0000       3.072084        83.5956 
 166   0.0000       3.109458        84.6127 
 167   0.0000       3.110840        84.6503 
 168   0.0000       3.123531        84.9956 
 169   0.0000       3.145851        85.6030 
 170   0.0000       3.159979        85.9874 
 171   0.0000       3.200177        87.0813 
 172   0.0000       3.258895        88.6790 
 173   0.0000       3.302113        89.8551 
 174   0.0000       3.311823        90.1193 
 175   0.0000       3.353939        91.2653 
 176   0.0000       3.366162        91.5979 
 177   0.0000       3.385854        92.1338 
 178   0.0000       3.416131        92.9576 
 179   0.0000       3.464760        94.2809 
 180   0.0000       3.473612        94.5218 
 181   0.0000       3.485579        94.8474 
 182   0.0000       3.527286        95.9823 
 183   0.0000       3.557492        96.8043 
 184   0.0000       3.637059        98.9694 
 185   0.0000       3.780979       102.8857 
 186   0.0000       3.811706       103.7218 
 187   0.0000       3.831862       104.2703 
 188   0.0000       3.835567       104.3711 
 189   0.0000       3.895761       106.0090 
 190   0.0000       3.955504       107.6347 
 191   0.0000       3.993889       108.6792 
 192   0.0000       4.058014       110.4242 
 193   0.0000       4.113997       111.9476 
 194   0.0000       4.192047       114.0714 
 195   0.0000       4.214619       114.6856 
 196   0.0000       4.302396       117.0742 
 197   0.0000       4.419760       120.2678 
 198   0.0000       4.443548       120.9151 
 199   0.0000       4.448194       121.0415 
 200   0.0000       4.719182       128.4155 
 201   0.0000       4.745530       129.1324 
 202   0.0000       4.864323       132.3650 
 203   0.0000       4.882282       132.8536 
 204   0.0000       5.195766       141.3840 
 205   0.0000       5.204205       141.6136 
 206   0.0000       5.244023       142.6971 
 207   0.0000       5.245610       142.7403 
 208   0.0000       5.360741       145.8732 
 209   0.0000       5.404861       147.0738 
 210   0.0000       5.407488       147.1452 
 211   0.0000       5.432049       147.8136 
 212   0.0000       5.599215       152.3624 
 213   0.0000       5.659930       154.0145 
 214   0.0000       5.729572       155.9096 
 215   0.0000       5.731846       155.9714 
 216   0.0000       5.746625       156.3736 
 217   0.0000       5.818885       158.3399 
 218   0.0000       5.890210       160.2808 
 219   0.0000       5.957609       162.1148 
 220   0.0000       6.120427       166.5453 
 221   0.0000       6.138424       167.0350 
 222   0.0000       6.201163       168.7422 
 223   0.0000       6.340217       172.5261 
 224   0.0000       6.374083       173.4476 
 225   0.0000       6.435184       175.1103 
 226   0.0000       6.436255       175.1394 
 227   0.0000       6.518735       177.3838 
 228   0.0000       6.555804       178.3925 
 229   0.0000       6.699928       182.3143 
 230   0.0000       6.718991       182.8330 
 231   0.0000       6.728262       183.0853 
 232   0.0000       6.744874       183.5373 
 233   0.0000       6.870958       186.9683 
 234   0.0000       6.935732       188.7309 
 235   0.0000       6.996159       190.3752 
 236   0.0000       7.101632       193.2452 
 237   0.0000       7.142664       194.3618 
 238   0.0000       7.192525       195.7186 
 239   0.0000       7.226318       196.6381 
 240   0.0000      22.432102       610.4085 
 241   0.0000      22.468893       611.4097 
 242   0.0000      23.021111       626.4363 
 243   0.0000      43.785452      1191.4627 
 244   0.0000      43.839173      1192.9246 
 245   0.0000      44.022753      1197.9200 
------------------
MOLECULAR ORBITALS
------------------
                      0         1         2         3         4         5   
                 -19.14340 -19.14339 -19.11645 -10.26299 -10.24264 -10.24263
                   2.00000   2.00000   2.00000   2.00000   2.00000   2.00000
                  --------  --------  --------  --------  --------  --------
  0O   1s        -0.435067 -0.006732 -0.000070 -0.000002  0.000008 -0.000015
  0O   2s        -0.639404 -0.009890 -0.000150  0.000028  0.000033 -0.000127
  0O   3s        -0.036785 -0.000602  0.000458 -0.000311 -0.000235  0.001230
  0O   4s         0.029899  0.000586 -0.001784  0.001053 -0.000399 -0.001565
  0O   5s        -0.013608 -0.001327  0.000316 -0.001543  0.000635 -0.004096
  0O   1pz       -0.000217 -0.000000  0.000005  0.000007 -0.000011  0.000033
  0O   1px       -0.000344 -0.000032  0.000083 -0.000090 -0.000132  0.000453
  0O   1py       -0.002030 -0.000001  0.000056  0.000063 -0.000107  0.000326
  0O   2pz        0.000481 -0.000013 -0.000049 -0.000050  0.000027 -0.000140
  0O   2px        0.002447  0.000120 -0.000910  0.000571  0.000284 -0.002132
  0O   2py        0.004574 -0.000119 -0.000502 -0.000419  0.000259 -0.001385
  0O   3pz       -0.000081 -0.000017  0.000031  0.000005  0.000020 -0.000114
  0O   3px       -0.000496 -0.001039 -0.000116 -0.000916  0.000139 -0.001332
  0O   3py       -0.000766 -0.000208  0.000288  0.000003  0.000192 -0.001126
  0O   1dz2       0.000232 -0.000004  0.000015 -0.000040  0.000027 -0.000050
  0O   1dxz      -0.000005  0.000001  0.000003 -0.000001 -0.000009  0.000027
  0O   1dyz      -0.000031  0.000002 -0.000001  0.000010 -0.000005  0.000009
  0O   1dx2y2    -0.000107 -0.000008 -0.000014 -0.000028  0.000001 -0.000006
  0O   1dxy      -0.000070  0.000011  0.000029 -0.000014 -0.000082  0.000250
  0O   2dz2      -0.001355  0.000016  0.000029  0.000126 -0.000254  0.000708
  0O   2dxz       0.000051 -0.000006 -0.000029 -0.000010  0.000070 -0.000209
  0O   2dyz       0.000178 -0.000009 -0.000006 -0.000061  0.000045 -0.000110
  0O   2dx2y2     0.000675  0.000061  0.000013  0.000341 -0.000008 -0.000130
  0O   2dxy       0.000615 -0.000060 -0.000272 -0.000070  0.000664 -0.001994
  0O   1f0       -0.000054 -0.000001  0.000003  0.000002 -0.000024  0.000058
  0O   1f+1       0.000001 -0.000004  0.000009  0.000018 -0.000156  0.000347
  0O   1f-1      -0.000199 -0.000002  0.000010  0.000006 -0.000096  0.000231
  0O   1f+2       0.000014  0.000002  0.000002  0.000005  0.000005 -0.000013
  0O   1f-2       0.000004  0.000000  0.000001 -0.000016  0.000040 -0.000095
  0O   1f+3       0.000062 -0.000002  0.000015 -0.000092  0.000113 -0.000297
  0O   1f-3      -0.000363 -0.000013  0.000001 -0.000032 -0.000167  0.000412
  0O   6s        -0.000913 -0.001844 -0.000497 -0.002158  0.002264 -0.011525
  0O   4pz       -0.000306  0.000060 -0.000041 -0.000001  0.000036 -0.000234
  0O   4px        0.001988 -0.001123  0.000557 -0.000452  0.000450 -0.002151
  0O   4py       -0.002748  0.000499 -0.000358 -0.000050  0.000356 -0.002262
  1C   1s        -0.000024 -0.000005 -0.000019 -0.002832 -0.188627  0.427083
  1C   2s         0.000126  0.000027  0.000095 -0.003795 -0.245800  0.556520
  1C   3s         0.001577  0.000189 -0.000681  0.000879 -0.013985  0.033368
  1C   4s        -0.005355 -0.003138 -0.000735 -0.010061  0.001577 -0.016355
  1C   5s         0.021547  0.004315  0.003614  0.014924 -0.022608  0.035142
  1C   1pz       -0.000020 -0.000001  0.000024 -0.000007  0.000042 -0.000078
  1C   1px       -0.000150 -0.000028 -0.000110 -0.000083  0.000325 -0.000139
  1C   1py       -0.000191 -0.000014  0.000213 -0.000076  0.000389 -0.000703
  1C   2pz        0.000437  0.000112 -0.000057  0.000452  0.000068  0.000017
  1C   2px        0.006074 -0.001908 -0.000908 -0.004774 -0.004929 -0.001409
  1C   2py        0.004296  0.000982 -0.000565  0.004061  0.000479  0.000014
  1C   3pz       -0.000440 -0.000052  0.000046 -0.000288  0.000110 -0.000355
  1C   3px        0.001618  0.000807  0.002213  0.004469 -0.004173 -0.000158
  1C   3py       -0.003978 -0.000421  0.000524 -0.002337  0.000820 -0.003233
  1C   1dz2       0.000258  0.000049  0.000124 -0.000022  0.000170 -0.000223
  1C   1dxz      -0.000053  0.000003  0.000005 -0.000005 -0.000005  0.000021
  1C   1dyz      -0.000025  0.000002 -0.000021  0.000007 -0.000031  0.000029
  1C   1dx2y2    -0.000194 -0.000104 -0.000020 -0.000012 -0.000011  0.000121
  1C   1dxy      -0.000521  0.000019  0.000033 -0.000049 -0.000062  0.000213
  1C   2dz2       0.002078  0.000182 -0.001447  0.000300 -0.000197  0.000859
  1C   2dxz      -0.000320  0.000072  0.000122  0.000121  0.000130  0.000076
  1C   2dyz      -0.000436 -0.000043  0.000220 -0.000157  0.000197 -0.000084
  1C   2dx2y2     0.000550  0.000040  0.000441  0.000764 -0.001505 -0.000751
  1C   2dxy      -0.003094  0.000669  0.001273  0.001164  0.001170  0.000625
  1C   1f0       -0.000073 -0.000002  0.000002  0.000015 -0.000170  0.000368
  1C   1f+1      -0.000489  0.000013 -0.000008 -0.000494  0.000065  0.000269
  1C   1f-1      -0.000294 -0.000013  0.000005  0.000037 -0.000625  0.001366
  1C   1f+2       0.000008  0.000005 -0.000001 -0.000095 -0.000045  0.000103
  1C   1f-2       0.000105 -0.000004 -0.000013  0.000081  0.000013 -0.000066
  1C   1f+3       0.000197 -0.000014 -0.000110 -0.000074  0.000238 -0.000277
  1C   1f-3      -0.000472 -0.000047  0.000008  0.000733 -0.000472  0.001028
  1C   6s         0.005396 -0.019575 -0.001894 -0.005180 -0.020998  0.011962
  1C   4pz       -0.000059  0.000258 -0.000069  0.000062  0.000316 -0.000215
  1C   4px        0.000016 -0.003402 -0.000963 -0.001301 -0.003801  0.000942
  1C   4py       -0.000536  0.002226 -0.000686  0.000541  0.002755 -0.001936
  2C   1s        -0.000007 -0.000007 -0.000049 -0.466872 -0.001483 -0.003824
  2C   2s         0.000036  0.000037  0.000283 -0.608005 -0.001884 -0.004856
  2C   3s        -0.000888 -0.000914  0.000075 -0.041928 -0.000144 -0.000364
  2C   4s         0.002216  0.002272 -0.007899  0.030829  0.001829  0.004693
  2C   5s        -0.012904 -0.013320  0.006710 -0.038629 -0.006129 -0.015839
  2C   1pz        0.000005  0.000005  0.000066  0.000053  0.000006  0.000020
  2C   1px       -0.000058  0.000054 -0.000013 -0.000010  0.000728 -0.000286
  2C   1py        0.000045  0.000049  0.000616  0.000488  0.000086  0.000177
  2C   2pz       -0.000136 -0.000130  0.001013  0.001818  0.000017 -0.000013
  2C   2px        0.002204 -0.002073 -0.000190 -0.000344 -0.007237  0.002802
  2C   2py       -0.001171 -0.001308  0.009360  0.016835 -0.000171  0.000009
  2C   3pz       -0.000302 -0.000275 -0.001215 -0.000714  0.000191  0.000390
  2C   3px        0.006606 -0.006295  0.000227  0.000138 -0.012676  0.004827
  2C   3py       -0.002506 -0.002855 -0.011236 -0.006772  0.001179  0.003816
  2C   1dz2       0.000027  0.000028  0.000364  0.001702  0.000086  0.000223
  2C   1dxz      -0.000018  0.000019  0.000003  0.000014  0.000001  0.000002
  2C   1dyz       0.000012  0.000012 -0.000122 -0.000436 -0.000017 -0.000045
  2C   1dx2y2    -0.000147 -0.000166  0.000484  0.001029  0.000008  0.000020
  2C   1dxy      -0.000181  0.000162  0.000020  0.000042 -0.000010  0.000005
  2C   2dz2      -0.000830 -0.000853  0.001979 -0.000642 -0.000087 -0.000231
  2C   2dxz       0.000250 -0.000255  0.000015 -0.000009 -0.000725  0.000279
  2C   2dyz       0.000090  0.000095 -0.000913 -0.000919  0.000114  0.000287
  2C   2dx2y2     0.000517  0.000724  0.004926  0.009597 -0.000563 -0.002272
  2C   2dxy       0.002388 -0.002259  0.000204  0.000398 -0.006661  0.002476
  2C   1f0        0.000016  0.000018 -0.000082 -0.000344  0.000036  0.000110
  2C   1f+1       0.000064 -0.000065  0.000006  0.000026  0.000823 -0.000327
  2C   1f-1       0.000065  0.000065 -0.000300 -0.001250  0.000173  0.000394
  2C   1f+2       0.000019  0.000018 -0.000060 -0.000400 -0.000009 -0.000050
  2C   1f-2       0.000001  0.000002 -0.000004 -0.000018 -0.000131  0.000054
  2C   1f+3       0.000080 -0.000073 -0.000003 -0.000082  0.000060 -0.000086
  2C   1f-3      -0.000041 -0.000052  0.000052  0.001337  0.000349  0.000885
  2C   6s         0.014375  0.014797  0.004223  0.010537 -0.001608 -0.004198
  2C   4pz        0.000307  0.000364  0.000374  0.000165  0.000070  0.000076
  2C   4px        0.008855 -0.008711 -0.000068 -0.000028 -0.012971  0.004998
  2C   4py        0.003248  0.002971  0.003460  0.001447  0.000047  0.000917
  3H   1s        -0.000026  0.000019  0.000048  0.000049  0.000185 -0.000316
  3H   2s        -0.001405 -0.000047  0.001174  0.000283  0.001727 -0.002999
  3H   3s        -0.001437 -0.000652 -0.000408 -0.000037  0.002508 -0.003746
  3H   1pz        0.000001 -0.000005 -0.000106  0.000044 -0.000728  0.001650
  3H   1px       -0.000096  0.000010  0.000002  0.000265  0.000101 -0.000115
  3H   1py        0.000161 -0.000009 -0.000276 -0.000119 -0.000558  0.001000
  4H   1s        -0.000025  0.000018  0.000049  0.000046  0.000185 -0.000314
  4H   2s        -0.001400 -0.000052  0.001172  0.000261  0.001724 -0.002995
  4H   3s        -0.001440 -0.000652 -0.000405 -0.000041  0.002507 -0.003752
  4H   1pz        0.000035  0.000001  0.000044 -0.000075  0.000590 -0.001396
  4H   1px       -0.000096  0.000009  0.000003  0.000263  0.000107 -0.000131
  4H   1py        0.000156 -0.000009 -0.000292 -0.000106 -0.000699  0.001326
  5C   1s        -0.000005 -0.000024 -0.000019 -0.002835  0.427089  0.188614
  5C   2s         0.000023  0.000127  0.000095 -0.003800  0.556531  0.245774
  5C   3s         0.000144  0.001582 -0.000681  0.000881  0.032816  0.015243
  5C   4s        -0.002997 -0.005453 -0.000739 -0.010067 -0.012195 -0.011023
  5C   5s         0.003659  0.021677  0.003627  0.014930  0.040378  0.010740
  5C   1pz       -0.000001 -0.000021  0.000023 -0.000007 -0.000086 -0.000029
  5C   1px        0.000022  0.000159  0.000101  0.000086  0.000364 -0.000105
  5C   1py       -0.000007 -0.000185  0.000218 -0.000073 -0.000746 -0.000262
  5C   2pz        0.000085  0.000473 -0.000062  0.000425 -0.000024  0.000035
  5C   2px        0.002077 -0.006183  0.000935  0.004602 -0.002677  0.004340
  5C   2py        0.000930  0.004070 -0.000526  0.004258 -0.000452  0.000514
  5C   3pz       -0.000033 -0.000434  0.000058 -0.000264 -0.000305 -0.000203
  5C   3px       -0.000742 -0.001478 -0.002234 -0.004370 -0.002853  0.003004
  5C   3py       -0.000326 -0.004054  0.000429 -0.002521 -0.002904 -0.001714
  5C   1dz2       0.000040  0.000259  0.000124 -0.000022 -0.000276 -0.000050
  5C   1dxz      -0.000004  0.000057 -0.000003  0.000004 -0.000023 -0.000013
  5C   1dyz       0.000003 -0.000026 -0.000021  0.000007  0.000043  0.000000
  5C   1dx2y2    -0.000094 -0.000240 -0.000017 -0.000016  0.000104  0.000091
  5C   1dxy      -0.000044  0.000502 -0.000035  0.000048 -0.000181 -0.000108
  5C   2dz2       0.000113  0.002079 -0.001446  0.000302  0.000725  0.000503
  5C   2dxz      -0.000081  0.000354 -0.000148 -0.000116  0.000056 -0.000134
  5C   2dyz      -0.000029 -0.000440  0.000221 -0.000155 -0.000204  0.000072
  5C   2dx2y2     0.000088  0.000295  0.000544  0.000859  0.000567 -0.001461
  5C   2dxy      -0.000770  0.003105 -0.001232 -0.001097  0.000492 -0.001374
  5C   1f0        0.000001 -0.000079  0.000001  0.000009  0.000375  0.000161
  5C   1f+1      -0.000030  0.000499  0.000008  0.000493 -0.000187 -0.000265
  5C   1f-1      -0.000008 -0.000273  0.000005  0.000058  0.001374  0.000578
  5C   1f+2       0.000005  0.000021 -0.000002 -0.000083  0.000097  0.000040
  5C   1f-2       0.000006 -0.000110  0.000013 -0.000083  0.000081  0.000051
  5C   1f+3       0.000026 -0.000136  0.000108 -0.000018  0.000229 -0.000012
  5C   1f-3      -0.000029 -0.000493  0.000021  0.000737  0.001077  0.000443
  5C   6s        -0.019742  0.004809 -0.001901 -0.005180  0.023568 -0.005275
  5C   4pz        0.000241 -0.000051 -0.000074  0.000055 -0.000359  0.000043
  5C   4px        0.003304  0.000103  0.000991  0.001276 -0.003305  0.001840
  5C   4py        0.002383 -0.000464 -0.000643  0.000596 -0.003479  0.000498
  6H   1s        -0.000750 -0.000004 -0.000002  0.000090  0.000086 -0.000291
  6H   2s        -0.002085 -0.000027 -0.000495 -0.000252  0.000308 -0.000549
  6H   3s         0.004669 -0.000696  0.000973  0.000404 -0.000558  0.001079
  6H   1pz        0.000078  0.000006  0.000007  0.000005 -0.000006  0.000019
  6H   1px       -0.000996  0.000014 -0.000127  0.000001  0.000072 -0.000111
  6H   1py        0.000670  0.000054  0.000054  0.000044 -0.000052  0.000170
  7O   1s         0.006731 -0.435067 -0.000071 -0.000002 -0.000016 -0.000006
  7O   2s         0.009897 -0.639403 -0.000151  0.000028 -0.000109 -0.000072
  7O   3s         0.000541 -0.036787  0.000458 -0.000312  0.001001  0.000750
  7O   4s        -0.000353  0.029902 -0.001785  0.001056 -0.000755 -0.001424
  7O   5s        -0.000910 -0.013643  0.000312 -0.001543 -0.003230 -0.002600
  7O   1pz        0.000006 -0.000219  0.000006  0.000007  0.000033  0.000019
  7O   1px        0.000019  0.000428 -0.000086  0.000087 -0.000414 -0.000253
  7O   1py        0.000064 -0.002013  0.000052  0.000066  0.000282  0.000158
  7O   2pz       -0.000028  0.000495 -0.000054 -0.000046 -0.000123 -0.000093
  7O   2px       -0.000029 -0.002635  0.000929 -0.000555  0.001687  0.001417
  7O   2py       -0.000268  0.004462 -0.000464 -0.000442 -0.001054 -0.000790
  7O   3pz       -0.000021 -0.000084  0.000030  0.000000 -0.000097 -0.000076
  7O   3px        0.001031  0.000560  0.000105  0.000915  0.001036  0.000919
  7O   3py       -0.000141 -0.000749  0.000291  0.000042 -0.000858 -0.000665
  7O   1dz2      -0.000011  0.000232  0.000015 -0.000040 -0.000054 -0.000019
  7O   1dxz      -0.000002  0.000009 -0.000003  0.000001 -0.000025 -0.000014
  7O   1dyz       0.000003 -0.000031 -0.000001  0.000010  0.000010  0.000003
  7O   1dx2y2    -0.000004 -0.000113 -0.000012 -0.000030  0.000014  0.000008
  7O   1dxy      -0.000014  0.000060 -0.000030  0.000012 -0.000229 -0.000129
  7O   2dz2       0.000059 -0.001354  0.000030  0.000126  0.000662  0.000351
  7O   2dxz       0.000009 -0.000075  0.000029  0.000011  0.000204  0.000114
  7O   2dyz      -0.000016  0.000179 -0.000006 -0.000061 -0.000109 -0.000052
  7O   2dx2y2     0.000033  0.000725 -0.000010  0.000335 -0.000233 -0.000186
  7O   2dxy       0.000083 -0.000553  0.000272  0.000097  0.001819  0.001014
  7O   1f0        0.000001 -0.000053  0.000003  0.000002  0.000061  0.000029
  7O   1f+1       0.000004  0.000007 -0.000009 -0.000019 -0.000357 -0.000155
  7O   1f-1       0.000004 -0.000199  0.000009  0.000005  0.000211  0.000099
  7O   1f+2       0.000001  0.000014  0.000001  0.000004 -0.000022 -0.000011
  7O   1f-2      -0.000000 -0.000007 -0.000000  0.000016  0.000097  0.000045
  7O   1f+3       0.000004 -0.000016 -0.000015  0.000096  0.000232  0.000119
  7O   1f-3      -0.000001 -0.000368 -0.000001 -0.000021  0.000433  0.000208
  7O   6s        -0.001810 -0.000972 -0.000498 -0.002157 -0.009432 -0.006994
  7O   4pz        0.000063 -0.000293 -0.000038 -0.000003 -0.000195 -0.000156
  7O   4px        0.001162 -0.001838 -0.000540  0.000455  0.001857  0.001345
  7O   4py        0.000634 -0.002810 -0.000380 -0.000031 -0.001710 -0.001377
  8H   1s         0.000020 -0.000025  0.000049  0.000049 -0.000350 -0.000109
  8H   2s         0.000007 -0.001405  0.001173  0.000284 -0.003297 -0.001053
  8H   3s        -0.000615 -0.001457 -0.000408 -0.000038 -0.004379 -0.001078
  8H   1pz       -0.000008  0.000000 -0.000106  0.000045  0.001648  0.000730
  8H   1px       -0.000012  0.000089  0.000009 -0.000259  0.000116  0.000006
  8H   1py       -0.000016  0.000164 -0.000276 -0.000131  0.001091  0.000364
  9H   1s         0.000020 -0.000024  0.000049  0.000046 -0.000348 -0.000108
  9H   2s        -0.000000 -0.001402  0.001173  0.000262 -0.003292 -0.001052
  9H   3s        -0.000614 -0.001461 -0.000407 -0.000042 -0.004382 -0.001084
  9H   1pz        0.000001  0.000035  0.000044 -0.000074 -0.001377 -0.000634
  9H   1px       -0.000012  0.000090  0.000010 -0.000259  0.000100 -0.000000
  9H   1py       -0.000018  0.000160 -0.000292 -0.000117  0.001415  0.000510
 10H   1s         0.000019 -0.000749 -0.000002  0.000091 -0.000259 -0.000157
 10H   2s         0.000040 -0.002085 -0.000493 -0.000252 -0.000594 -0.000198
 10H   3s        -0.000846  0.004645  0.000971  0.000403  0.001133  0.000420
 10H   1pz        0.000004  0.000072  0.000006  0.000005  0.000016  0.000010
 10H   1px       -0.000047  0.000966  0.000123 -0.000003  0.000121  0.000030
 10H   1py        0.000031  0.000712  0.000059  0.000044  0.000158  0.000092
 11O   1s         0.000078  0.000082 -0.435100  0.000068  0.000002  0.000006
 11O   2s         0.000070  0.000073 -0.639475  0.000331 -0.000028 -0.000073
 11O   3s         0.000458  0.000474 -0.037065 -0.003733  0.000312  0.000804
 11O   4s        -0.001555 -0.001610  0.033381  0.015060 -0.001309 -0.003372
 11O   5s         0.000557  0.000578 -0.015723  0.002665  0.001532  0.003957
 11O   1pz        0.000008  0.000007 -0.000247 -0.000082  0.000004  0.000012
 11O   1px       -0.000079  0.000074  0.000047  0.000015  0.000184 -0.000074
 11O   1py        0.000066  0.000072 -0.002277 -0.000743  0.000049  0.000116
 11O   2pz       -0.000074 -0.000073  0.000793  0.000997 -0.000033 -0.000096
 11O   2px        0.000628 -0.000580 -0.000151 -0.000189 -0.001430  0.000575
 11O   2py       -0.000660 -0.000708  0.007321  0.009163 -0.000382 -0.000894
 11O   3pz        0.000035  0.000033 -0.000158  0.000154  0.000043  0.000115
 11O   3px       -0.000604  0.000573  0.000030 -0.000029  0.000394 -0.000178
 11O   3py        0.000294  0.000329 -0.001457  0.001445  0.000409  0.001032
 11O   1dz2       0.000002  0.000003  0.000095 -0.000096  0.000008  0.000019
 11O   1dxz      -0.000002  0.000002  0.000001 -0.000001  0.000011 -0.000004
 11O   1dyz      -0.000001 -0.000002 -0.000050  0.000002 -0.000001 -0.000004
 11O   1dx2y2     0.000009  0.000008  0.000287  0.000138 -0.000011 -0.000017
 11O   1dxy      -0.000018  0.000018  0.000012  0.000006  0.000089 -0.000036
 11O   2dz2       0.000103  0.000106 -0.000757 -0.001158 -0.000020 -0.000052
 11O   2dxz       0.000023 -0.000020 -0.000006 -0.000009 -0.000075  0.000028
 11O   2dyz      -0.000025 -0.000026  0.000319  0.000592  0.000008  0.000020
 11O   2dx2y2     0.000043  0.000062 -0.001602 -0.003375  0.000006 -0.000071
 11O   2dxy       0.000206 -0.000195 -0.000066 -0.000139 -0.000701  0.000269
 11O   1f0        0.000006  0.000006 -0.000038 -0.000088 -0.000001 -0.000003
 11O   1f+1       0.000012 -0.000012  0.000003  0.000007 -0.000033  0.000013
 11O   1f-1       0.000023  0.000023 -0.000141 -0.000319 -0.000004 -0.000008
 11O   1f+2       0.000004  0.000004 -0.000050 -0.000144 -0.000006 -0.000015
 11O   1f-2       0.000000  0.000000 -0.000002 -0.000005  0.000001 -0.000001
 11O   1f+3       0.000014 -0.000014 -0.000012 -0.000040 -0.000041  0.000009
 11O   1f-3       0.000003  0.000001  0.000187  0.000646  0.000037  0.000103
 11O   6s        -0.000377 -0.000384 -0.005156  0.007158  0.002629  0.006781
 11O   4pz       -0.000051 -0.000050 -0.000341  0.000313  0.000045  0.000137
 11O   4px        0.000451 -0.000418  0.000065 -0.000061  0.002745 -0.001092
 11O   4py       -0.000442 -0.000472 -0.003152  0.002953  0.000543  0.001229
                      6         7         8         9        10        11   
                  -1.05725  -1.03932  -1.01929  -0.76760  -0.69624  -0.54063
                   2.00000   2.00000   2.00000   2.00000   2.00000   2.00000
                  --------  --------  --------  --------  --------  --------
  0O   1s         0.045810  0.065848  0.047276  0.019956 -0.022397  0.011770
  0O   2s         0.107481  0.154581  0.111074  0.047220 -0.053096  0.027926
[...]
11 O  f-2             0.2       2.6       0.0       0.3       0.0       0.0
11 O  f+3             5.8       0.0       0.1       0.0       0.0       0.0
11 O  f-3             0.0       0.0      25.5       0.0       0.0       1.2

                    228       229       230       231       232       233   
                   6.61612   6.68694   6.71195   6.71692   6.73374   6.86710
                   0.00000   0.00000   0.00000   0.00000   0.00000   0.00000
                  --------  --------  --------  --------  --------  --------
 0 O  s               0.5       0.0       0.9       0.7       0.0       0.0
 0 O  pz              0.0       0.3       0.0       0.0       0.4       0.1
 0 O  px              0.0       0.0       0.6       0.3       0.0       0.0
 0 O  py              0.2       0.0       1.2       0.9       0.0       0.0
 0 O  dz2             0.1       0.3      16.3      15.6       0.3       0.0
 0 O  dxz             0.0      23.4       0.0       0.0      28.7       3.2
 0 O  dyz             0.1      13.0       1.8       1.5      12.7       1.5
 0 O  dx2y2           4.8       0.2      19.7      16.8       0.2       0.0
 0 O  dxy             0.5       0.3       0.1       0.0       0.3       0.0
 0 O  f0              0.0       1.4       0.2       0.1       1.6       0.3
 0 O  f+1             0.1       0.1       1.0       0.4       0.1       0.0
 0 O  f-1             0.1       0.1       2.4       1.6       0.1       0.0
 0 O  f+2             0.0       0.1       0.0       0.0       0.1       0.0
 0 O  f-2             0.0       3.0       0.0       0.0       3.8       0.7
 0 O  f+3             0.0       0.1       0.2       0.4       0.1       0.0
 0 O  f-3             2.2       0.0       1.2       0.8       0.0       0.0
 1 C  s               0.2       0.0       0.1       0.1       0.0       0.0
 1 C  pz              0.0       0.2       0.0       0.0       0.2       0.0
 1 C  px              0.0       0.0       0.6       0.3       0.0       0.0
 1 C  py              0.1       0.0       0.1       0.3       0.0       0.0
 1 C  dxz             0.0       0.4       0.0       0.0       0.5       0.1
 1 C  dyz             0.0       0.2       0.0       0.0       0.4       0.1
 1 C  dx2y2           0.8       0.0       0.1       0.3       0.0       0.0
 1 C  dxy             0.5       0.0       0.1       0.1       0.0       0.0
 1 C  f0              0.0       0.1       0.0       0.0       0.1       0.0
 1 C  f-2             0.0       0.1       0.0       0.0       0.1       0.1
 1 C  f+3             1.3       0.0       0.3       0.1       0.0       0.0
 2 C  s               0.0       0.0       0.0       0.4       0.0       0.0
 2 C  pz              0.0       0.2       0.0       0.0       0.0       1.7
 2 C  px              0.3       0.0       0.5       0.0       0.0       0.0
 2 C  dyz             0.0       0.4       0.0       0.0       0.0       2.3
 2 C  dx2y2           0.0       0.0       0.0       0.4       0.0       0.0
 2 C  dxy             4.8       0.0       0.2       0.0       0.0       0.0
 2 C  f0              0.0       0.0       0.0       0.0       0.0       0.1
 2 C  f+1             0.2       0.0       0.1       0.0       0.0       0.0
 2 C  f+2             0.0       0.0       0.0       0.0       0.0       0.1
 2 C  f-2             0.3       0.0       0.0       0.0       0.0       0.0
 2 C  f+3            12.8       0.0       0.8       0.0       0.0       0.0
 5 C  s               0.2       0.0       0.1       0.1       0.0       0.0
 5 C  pz              0.0       0.2       0.0       0.0       0.2       0.0
 5 C  px              0.0       0.0       0.5       0.4       0.0       0.0
 5 C  py              0.1       0.0       0.1       0.4       0.0       0.0
 5 C  dxz             0.0       0.4       0.0       0.0       0.5       0.1
 5 C  dyz             0.0       0.2       0.0       0.0       0.4       0.1
 5 C  dx2y2           0.9       0.0       0.1       0.3       0.0       0.0
 5 C  dxy             0.4       0.0       0.1       0.1       0.0       0.0
 5 C  f0              0.0       0.1       0.0       0.0       0.1       0.0
 5 C  f-2             0.0       0.1       0.0       0.0       0.1       0.1
 5 C  f+3             1.2       0.0       0.2       0.1       0.0       0.0
 6 H  s               0.2       0.0       1.2       0.7       0.0       0.0
 6 H  px              0.0       0.0       0.2       0.1       0.0       0.0
 7 O  s               0.5       0.0       0.7       0.8       0.0       0.0
 7 O  pz              0.0       0.3       0.0       0.0       0.4       0.1
 7 O  px              0.0       0.0       0.5       0.3       0.0       0.0
 7 O  py              0.2       0.0       1.0       1.1       0.0       0.0
 7 O  dz2             0.1       0.6      13.4      17.9       0.5       0.1
 7 O  dxz             0.0      25.2       0.0       0.0      29.7       3.3
 7 O  dyz             0.1      11.5       2.1       2.4      10.7       1.2
 7 O  dx2y2           4.6       0.1      16.6      19.2       0.2       0.0
 7 O  dxy             0.8       0.4       0.1       0.3       0.5       0.1
 7 O  f0              0.0       1.4       0.3       0.2       1.6       0.3
 7 O  f+1             0.1       0.1       0.7       0.4       0.1       0.0
 7 O  f-1             0.1       0.1       2.1       1.9       0.1       0.0
 7 O  f+2             0.0       0.2       0.0       0.0       0.3       0.1
 7 O  f-2             0.0       2.9       0.0       0.0       3.5       0.6
 7 O  f+3             0.0       0.1       0.1       0.3       0.1       0.0
 7 O  f-3             2.2       0.0       1.1       1.1       0.0       0.0
10 H  s               0.2       0.0       1.1       0.9       0.0       0.0
10 H  px              0.0       0.0       0.2       0.1       0.0       0.0
11 O  pz              0.0       0.2       0.0       0.0       0.0       2.0
11 O  px              2.2       0.0       0.2       0.0       0.0       0.0
11 O  dz2             0.0       0.2       0.0       5.3       0.0       1.9
11 O  dxz             0.3       0.0       0.1       0.0       0.2       0.0
11 O  dyz             0.0       7.7       0.0       0.0       0.0      59.3
11 O  dx2y2           0.0       0.1       0.0       3.5       0.0       0.7
11 O  dxy            27.4       0.0       7.3       0.0       0.0       0.0
11 O  f0              0.0       1.2       0.0       0.0       0.0       6.3
11 O  f+1             1.2       0.0       0.1       0.0       0.0       0.0
11 O  f-1             0.0       0.3       0.0       0.3       0.0       1.5
11 O  f+2             0.0       2.1       0.0       0.0       0.0      11.2
11 O  f-2             0.7       0.0       0.0       0.0       0.1       0.0
11 O  f+3            25.7       0.0       0.9       0.0       0.0       0.0
11 O  f-3             0.1       0.0       0.0       0.1       0.0       0.2

                    234       235       236       237       238       239   
                   6.93522   6.99954   7.11891   7.13147   7.21284   7.24832
                   0.00000   0.00000   0.00000   0.00000   0.00000   0.00000
                  --------  --------  --------  --------  --------  --------
 0 O  s               0.7       1.4       0.8       0.2       2.0       1.2
 0 O  px              0.5       0.9       1.0       1.1       0.4       0.3
 0 O  py              0.3       0.4       0.1       0.0       0.3       0.1
 0 O  dz2             9.9       8.2       0.1       0.2       2.5       2.3
 0 O  dxz             0.1       0.1       0.2       0.1       0.2       0.1
 0 O  dx2y2           6.9      11.3       0.9       1.1      12.8       8.5
 0 O  dxy            12.9      15.5      15.0      12.3      10.3       6.3
 0 O  f+1             0.5       0.6       1.7       0.9       1.3       0.7
 0 O  f-1             0.3       0.4       0.3       0.0       0.7       0.3
 0 O  f-2             0.0       0.0       0.2       0.1       0.2       0.2
 0 O  f+3             0.3       0.1       1.1       0.1       2.2       1.7
 0 O  f-3             1.7       3.4       2.5       0.1       7.6       4.8
 1 C  s               0.5       0.7       0.1       0.2       0.2       0.1
 1 C  px              0.2       0.6       0.2       0.5       0.1       0.0
 1 C  py              0.3       0.6       0.0       0.2       0.4       0.1
 1 C  dx2y2           0.0       0.1       0.0       0.2       0.3       0.2
 1 C  dxy             0.2       0.5       0.0       0.2       0.1       0.2
 1 C  f+3             0.0       0.0       0.1       0.0       0.3       0.2
 1 C  f-3             0.0       0.1       0.1       0.2       0.0       0.1
 2 C  s               0.0       0.3       2.0       0.0       0.0       1.7
 2 C  px              0.6       0.0       0.0       1.0       1.0       0.0
 2 C  py              0.0       0.4       1.0       0.0       0.0       0.7
 2 C  dz2             0.0       0.0       0.1       0.0       0.0       0.2
 2 C  dx2y2           0.0       0.0       0.4       0.0       0.0       0.1
 2 C  dxy             0.7       0.0       0.0       3.1       0.4       0.0
 2 C  f-1             0.0       0.1       0.1       0.0       0.0       0.2
 2 C  f+3             0.2       0.0       0.0       0.4       0.2       0.0
 2 C  f-3             0.0       0.0       0.6       0.0       0.0       1.4
 5 C  s               0.5       0.7       0.1       0.2       0.2       0.1
 5 C  px              0.3       0.6       0.1       0.6       0.1       0.0
 5 C  py              0.3       0.6       0.0       0.2       0.4       0.1
 5 C  dx2y2           0.0       0.1       0.0       0.2       0.2       0.2
 5 C  dxy             0.2       0.5       0.0       0.2       0.1       0.2
 5 C  f+3             0.0       0.0       0.1       0.0       0.3       0.2
 5 C  f-3             0.1       0.1       0.1       0.2       0.0       0.0
 6 H  s               0.0       0.1       1.8       0.3       3.1       2.1
 7 O  s               0.8       1.4       0.8       0.2       2.1       1.1
 7 O  px              0.5       1.0       0.9       1.3       0.4       0.3
 7 O  py              0.2       0.4       0.2       0.0       0.3       0.1
 7 O  dz2            10.0       8.1       0.1       0.2       2.6       2.2
 7 O  dxz             0.2       0.2       0.3       0.3       0.2       0.1
 7 O  dyz             0.1       0.0       0.0       0.0       0.0       0.0
 7 O  dx2y2           8.7      13.6       0.5       1.7      11.2       6.6
 7 O  dxy            11.2      12.8      14.0      13.2      12.8       7.0
 7 O  f+1             0.6       0.6       1.5       1.1       1.2       0.6
 7 O  f-1             0.3       0.4       0.4       0.0       0.8       0.3
 7 O  f-2             0.0       0.0       0.2       0.1       0.3       0.2
 7 O  f+3             0.1       0.0       1.6       0.1       3.5       2.3
 7 O  f-3             1.8       3.4       2.1       0.1       6.7       3.7
10 H  s               0.0       0.1       1.7       0.4       3.2       1.9
11 O  s               0.0       0.0       1.2       0.0       0.0       1.5
11 O  px              0.8       0.0       0.0       2.7       0.3       0.0
11 O  py              0.0       0.1       1.6       0.0       0.0       1.6
11 O  dz2             0.0       0.3       9.2       0.0       0.0       6.5
11 O  dxz             0.2       0.0       0.0       0.4       0.0       0.0
11 O  dyz             0.0       0.2       1.2       0.0       0.0       0.9
11 O  dx2y2           0.0       7.1      23.9       0.2       0.0      23.1
11 O  dxy            18.1       0.0       0.2      38.4       2.4       0.0
11 O  f0              0.0       0.0       0.2       0.0       0.0       0.1
11 O  f+1             0.3       0.0       0.0       0.9       0.1       0.0
11 O  f-1             0.0       0.1       3.0       0.0       0.0       2.0
11 O  f+2             0.0       0.0       0.3       0.0       0.0       0.2
11 O  f-2             0.2       0.0       0.0       0.4       0.1       0.0
11 O  f+3             6.8       0.0       0.1      13.6       2.7       0.0
11 O  f-3             0.0       1.0       3.4       0.1       0.0       2.5

                    240       241       242       243       244       245   
                  22.44379  22.44937  23.00604  43.80905  43.82294  44.01952
                   0.00000   0.00000   0.00000   0.00000   0.00000   0.00000
                  --------  --------  --------  --------  --------  --------
 0 O  s               0.1       0.2       0.0      32.7      51.6      15.5
 0 O  px              0.1       0.1       0.0       0.0       0.0       0.0
 1 C  s              40.4      56.1       1.6       0.0       0.0       0.0
 2 C  s               0.0       2.9      94.2       0.0       0.0       0.0
 2 C  px              0.2       0.0       0.0       0.0       0.0       0.0
 2 C  py              0.0       0.1       0.4       0.0       0.0       0.0
 2 C  dxy             0.1       0.0       0.0       0.0       0.0       0.0
 3 H  s               0.1       0.1       0.0       0.0       0.0       0.0
 4 H  s               0.1       0.1       0.0       0.0       0.0       0.0
 5 C  s              57.8      38.8       1.6       0.0       0.0       0.0
 7 O  s               0.1       0.1       0.0      36.3      48.2      15.3
 7 O  px              0.1       0.1       0.0       0.0       0.0       0.0
 8 H  s               0.1       0.1       0.0       0.0       0.0       0.0
 9 H  s               0.1       0.1       0.0       0.0       0.0       0.0
11 O  s               0.0       0.1       1.0      30.8       0.0      69.0
11 O  py              0.0       0.0       0.6       0.0       0.0       0.0



                      *****************************
                      * MAYER POPULATION ANALYSIS *
                      *****************************

  NA   - Mulliken gross atomic population
  ZA   - Total nuclear charge
  QA   - Mulliken gross atomic charge
  VA   - Mayer's total valence
  BVA  - Mayer's bonded valence
  FA   - Mayer's free valence

  ATOM       NA         ZA         QA         VA         BVA        FA
  0 O      8.4548     8.0000    -0.4548     1.9142     1.9142    -0.0000
  1 C      6.0563     6.0000    -0.0563     3.9152     3.9152    -0.0000
  2 C      5.7566     6.0000     0.2434     3.8480     3.8480     0.0000
  3 H      0.8885     1.0000     0.1115     0.9497     0.9497     0.0000
  4 H      0.8869     1.0000     0.1131     0.9496     0.9496     0.0000
  5 C      6.0556     6.0000    -0.0556     3.9156     3.9156    -0.0000
  6 H      0.6953     1.0000     0.3047     0.9057     0.9057    -0.0000
  7 O      8.4548     8.0000    -0.4548     1.9148     1.9148    -0.0000
  8 H      0.8880     1.0000     0.1120     0.9497     0.9497    -0.0000
  9 H      0.8876     1.0000     0.1124     0.9495     0.9495    -0.0000
 10 H      0.6953     1.0000     0.3047     0.9056     0.9056    -0.0000
 11 O      8.2801     8.0000    -0.2801     2.0709     2.0709     0.0000

  Mayer bond orders larger than 0.1
B(  0-O ,  1-C ) :   1.0642 B(  0-O ,  6-H ) :   0.8802 B(  1-C ,  2-C ) :   0.9545 
B(  1-C ,  3-H ) :   0.9496 B(  1-C ,  4-H ) :   0.9526 B(  2-C ,  5-C ) :   0.9549 
B(  2-C , 11-O ) :   2.0158 B(  5-C ,  7-O ) :   1.0648 B(  5-C ,  8-H ) :   0.9493 
B(  5-C ,  9-H ) :   0.9524 B(  7-O , 10-H ) :   0.8803 

-------
TIMINGS
-------

Total SCF time: 0 days 0 hours 0 min 59 sec 

Total time                  ....      59.421 sec
Sum of individual times     ....      59.223 sec  ( 99.7%)

Fock matrix formation       ....      55.779 sec  ( 93.9%)
  Split-RI-J                ....       3.440 sec  (  6.2% of F)
  Chain of spheres X        ....      44.730 sec  ( 80.2% of F)
  COS-X 1 center corr.      ....       0.000 sec  (  0.0% of F)
  XC integration            ....       7.426 sec  ( 13.3% of F)
    Basis function eval.    ....       1.786 sec  ( 24.0% of XC)
    Density eval.           ....       1.492 sec  ( 20.1% of XC)
    XC-Functional eval.     ....       0.263 sec  (  3.5% of XC)
    XC-Potential eval.      ....       3.713 sec  ( 50.0% of XC)
Diagonalization             ....       0.019 sec  (  0.0%)
Density matrix formation    ....       0.006 sec  (  0.0%)
Population analysis         ....       0.642 sec  (  1.1%)
Initial guess               ....       0.012 sec  (  0.0%)
Orbital Transformation      ....       0.000 sec  (  0.0%)
Orbital Orthonormalization  ....       0.009 sec  (  0.0%)
DIIS solution               ....       0.003 sec  (  0.0%)
SOSCF solution              ....       0.064 sec  (  0.1%)
Grid generation             ....       2.697 sec  (  4.5%)


-------------------------------------------------------------------------------
                          DFT DISPERSION CORRECTION                            
                                                                               
                              DFTD3 V3.1  Rev 1                                
                          USING Becke-Johnson damping                          
-------------------------------------------------------------------------------
The B3LYP functional is recognized
Active option DFTDOPT                   ...         4   

molecular C6(AA) [au] = 1153.551744 


            DFT-D V3
 parameters
 s6 scaling factor         :     1.0000 
 a1 scaling factor         :     0.3981 
 s8 scaling factor         :     1.9889 
 a2 scaling factor         :     4.4211 
 ad hoc parameters k1-k3   :    16.0000     1.3333    -4.0000 

 Edisp/kcal,au: -8.345890940628  -0.013300022383 
 E6   /kcal   :  -4.077507593 
 E8   /kcal   :  -4.268383347 
 % E8         :  51.143531322 

-------------------------   ----------------
Dispersion correction           -0.013300022
-------------------------   ----------------


-------------------------   --------------------
FINAL SINGLE POINT ENERGY      -343.550677189197
-------------------------   --------------------

                                *** OPTIMIZATION RUN DONE ***

                            ***************************************
                            *     ORCA property calculations      *
                            ***************************************

                                    ---------------------
                                    Active property flags
                                    ---------------------
   (+) Dipole Moment


------------------------------------------------------------------------------
                       ORCA ELECTRIC PROPERTIES CALCULATION
------------------------------------------------------------------------------

Dipole Moment Calculation                       ... on
Quadrupole Moment Calculation                   ... off
Polarizability Calculation                      ... off
GBWName                                         ... /nobackup/pmljrh/data/HTC-structures/DHA/DHA.gbw
Electron density file                           ... /nobackup/pmljrh/data/HTC-structures/DHA/DHA.scfp.tmp

-------------
DIPOLE MOMENT
-------------
                                X             Y             Z
Electronic contribution:      0.07726      -3.76449      -0.41648
Nuclear contribution   :     -0.12446       6.08192       0.68604
                        -----------------------------------------
Total Dipole Moment    :     -0.04720       2.31743       0.26956
                        -----------------------------------------
Magnitude (a.u.)       :      2.33353
Magnitude (Debye)      :      5.93136


Timings for individual modules:

Sum of individual times         ...      769.544 sec (=  12.826 min)
GTO integral calculation        ...        2.753 sec (=   0.046 min)   0.4 %
SCF iterations                  ...      598.115 sec (=   9.969 min)  77.7 %
SCF Gradient evaluation         ...      168.166 sec (=   2.803 min)  21.9 %
Geometry relaxation             ...        0.510 sec (=   0.008 min)   0.1 %
                             ****ORCA TERMINATED NORMALLY****
TOTAL RUN TIME: 0 days 0 hours 12 minutes 51 seconds 292 msec
