24
	Energy:      98.5578281
C          0.10263        1.14015       -0.07469
C          0.79928       -0.08190       -0.09330
C          2.11596        0.29251       -0.13724
C          2.14321        1.61618       -0.14245
C         -1.38063        1.30471       -0.02710
H         -1.83880        0.82547       -0.91722
H         -1.64315        2.38323       -0.02211
H         -1.78004        0.83139        0.89395
C          0.25174       -1.47274       -0.07099
H         -0.85704       -1.46086       -0.03505
H          0.63283       -2.00694        0.82407
H          0.57413       -2.01285       -0.98536
C          3.41664       -0.13610       -0.17804
C          4.16322        1.05646       -0.20616
O          3.35324        2.11238       -0.18334
C          5.65241        1.17110       -0.25486
H          6.13199        0.17057       -0.26714
H          6.00776        1.72781        0.63680
H          5.94909        1.72190       -1.17129
C          3.91955       -1.54377       -0.18975
H          3.07506       -2.26252       -0.16000
H          4.56630       -1.71455        0.69576
H          4.50758       -1.72047       -1.11419
O          0.95466        2.16237       -0.10568
