
                                 *****************
                                 * O   R   C   A *
                                 *****************

           --- An Ab Initio, DFT and Semiempirical electronic structure package ---

                  #######################################################
                  #                        -***-                        #
                  #  Department of molecular theory and spectroscopy    #
                  #              Directorship: Frank Neese              #
                  # Max Planck Institute for Chemical Energy Conversion #
                  #                  D-45470 Muelheim/Ruhr              #
                  #                       Germany                       #
                  #                                                     #
                  #                  All rights reserved                #
                  #                        -***-                        #
                  #######################################################


                         Program Version 4.0.0.2 - RELEASE -


 With contributions from (in alphabetic order):
   Daniel Aravena         : Magnetic Properties
   Michael Atanasov       : Ab Initio Ligand Field Theory
   Ute Becker             : Parallelization
   Martin Brehm           : Molecular dynamics
   Dmytro Bykov           : SCF Hessian
   Vijay G. Chilkuri      : MRCI spin determinant printing
   Dipayan Datta          : RHF DLPNO-CCSD density
   Achintya Kumar Dutta   : EOM-CC, STEOM-CC
   Dmitry Ganyushin       : Spin-Orbit,Spin-Spin,Magnetic field MRCI
   Yang Guo               : DLPNO-NEVPT2, CIM, IAO-localization
   Andreas Hansen         : Spin unrestricted coupled pair/coupled cluster methods
   Lee Huntington         : MR-EOM, pCC
   Robert Izsak           : Overlap fitted RIJCOSX, COSX-SCS-MP3, EOM
   Christian Kollmar      : KDIIS, OOCD, Brueckner-CCSD(T), CCSD density
   Simone Kossmann        : Meta GGA functionals, TD-DFT gradient, OOMP2, MP2 Hessian
   Martin Krupicka        : AUTO-CI
   Dagmar Lenk            : GEPOL surface
   Dimitrios Liakos       : Extrapolation schemes; parallel MDCI
   Dimitrios Manganas     : ROCIS; embedding schemes
   Dimitrios Pantazis     : SARC Basis sets
   Taras Petrenko         : DFT Hessian,TD-DFT gradient, ASA, ECA, R-Raman, ABS, FL, XAS/XES, NRVS
   Peter Pinski           : DLPNO-MP2
   Christoph Reimann      : Effective Core Potentials
   Marius Retegan         : Local ZFS, SOC
   Christoph Riplinger    : Optimizer, TS searches, QM/MM, DLPNO-CCSD(T), (RO)-DLPNO pert. Triples
   Tobias Risthaus        : Range-separated hybrids, TD-DFT gradient, RPA, STAB
   Michael Roemelt        : Restricted open shell CIS
   Masaaki Saitow         : Open-shell DLPNO
   Barbara Sandhoefer     : DKH picture change effects
   Kantharuban Sivalingam : CASSCF convergence, NEVPT2, FIC-MRCI
   Georgi Stoychev        : AutoAux
   Boris Wezisla          : Elementary symmetry handling
   Frank Wennmohs         : Technical directorship


 We gratefully acknowledge several colleagues who have allowed us to
 interface, adapt or use parts of their codes:
   Stefan Grimme, W. Hujo, H. Kruse,             : VdW corrections, initial TS optimization,
                  C. Bannwarth                     DFT functionals, gCP, sTDA/sTD-DF
   Ed Valeev                                     : LibInt (2-el integral package), F12 methods
   Garnet Chan, S. Sharma, J. Yang, R. Olivares  : DMRG
   Ulf Ekstrom                                   : XCFun DFT Library
   Mihaly Kallay                                 : mrcc  (arbitrary order and MRCC methods)
   Jiri Pittner, Ondrej Demel                    : Mk-CCSD
   Frank Weinhold                                : gennbo (NPA and NBO analysis)
   Christopher J. Cramer and Donald G. Truhlar   : smd solvation model


 Your calculation uses the libint2 library for the computation of 2-el integrals
 For citations please refer to: http://libint.valeyev.net

 This ORCA versions uses:
   CBLAS   interface :  Fast vector & matrix operations
   LAPACKE interface :  Fast linear algebra routines
   SCALAPACK package :  Parallel linear algebra routines


Your calculation utilizes the atom-pairwise dispersion correction
with the Becke-Johnson damping scheme (D3BJ)
Cite in your paper:
S.Grimme, S.Ehrlich, L.Goerigk, J Comput Chem, (2011), 32, 1456–1465 
S.Grimme, J.Antony, S.Ehrlich and H.Krieg, J.Chem.Phys., 132, (2010), 154104 
   

Your calculation utilizes the basis: ma-def2-TZVP
   F. Weigend and R. Ahlrichs, Phys. Chem. Chem. Phys. 7, 3297 (2005).
   J. Zheng, X. Xu and D. G. Truhlar, Theor. Chem. Acc. 128, 295 (2011).

Your calculation utilizes the auxiliary basis: def2/J
   F. Weigend, Phys. Chem. Chem. Phys. 8, 1057 (2006).

================================================================================
                                        WARNINGS
                       Please study these warnings very carefully!
================================================================================

Warning: TCutStore was < 0. Adjusted to Thresh (uncritical)

WARNING: Geometry Optimization
  ===> : Switching off AutoStart
         For restart on a previous wavefunction, please use MOREAD

INFO   : the flag for use of LIBINT has been found!

================================================================================
                                       INPUT FILE
================================================================================
NAME = /nobackup/pmljrh/data/HTC-structures/bpath_HMF02/bpath_HMF02.inp
|  1> # avogadro generated ORCA input file
|  2> # Basic Mode
|  3> # bpath_HMF02
|  4> ! B3LYP RIJCOSX D3 ma-def2-TZVP def2/J Opt TIGHTSCF Grid3 FinalGrid5
|  5> ! Normalprint
|  6> %output
|  7> Print[ P_Basis ] 2
|  8> Print[ P_MOs ] 1
|  9> End 
| 10> 
| 11> * xyz 0 1
| 12>    C       -0.47219       -1.04667        0.47105
| 13>    C        0.91319       -0.98146        0.33937
| 14>    O        1.64878        0.10053        0.31912
| 15>    O       -1.31149       -0.00997        0.57825
| 16>    C        2.90291       -0.27278        0.17846
| 17>    C       -2.62488       -0.44898        0.54151
| 18>    C       -2.56364       -2.00112        0.71794
| 19>    C       -1.11373       -2.26161        0.48310
| 20>    C        1.68434       -2.12916        0.20464
| 21>    C       -0.35882       -3.44557        0.33422
| 22>    C        1.03048       -3.39430        0.19399
| 23>    C        2.99582       -1.66535        0.09909
| 24>    C        4.03631        0.69996        0.11499
| 25>    H        3.65189        1.73758        0.20406
| 26>    H        4.56651        0.59606       -0.85461
| 27>    H        4.74397        0.50698        0.94802
| 28>    C       -3.22715       -0.05526       -0.80990
| 29>    H       -3.23311        0.03235        1.33957
| 30>    H       -4.27814       -0.40865       -0.87508
| 31>    H       -2.64351       -0.50191       -1.64360
| 32>    H       -3.21846        1.05005       -0.91880
| 33>    C       -2.92546       -2.36712        2.16736
| 34>    H       -3.23212       -2.52835        0.00291
| 35>    H       -3.98604       -2.10328        2.36518
| 36>    H       -2.28444       -1.81105        2.88626
| 37>    H       -2.79933       -3.44059        2.37487
| 38>    C       -0.71537       -4.78317        0.26122
| 39>    C        1.43453       -4.72413        0.06341
| 40>    O        0.37274       -5.50505        0.10330
| 41>    C        2.79963       -5.29391       -0.11393
| 42>    H        3.42990       -5.05362        0.76255
| 43>    H        3.24495       -4.92853       -1.05761
| 44>    H        2.73334       -6.39996       -0.18453
| 45>    C       -2.08082       -5.39099        0.29029
| 46>    H       -2.69836       -4.96678       -0.52816
| 47>    H       -2.57493       -5.22922        1.26104
| 48>    H       -2.00147       -6.48825        0.14166
| 49>    C        4.27241       -2.42879       -0.06653
| 50>    H        5.14524       -1.74667       -0.11356
| 51>    H        4.25359       -2.99282       -1.01703
| 52>    H        4.42807       -3.09475        0.80267
| 53> *
| 54> 
| 55>                          ****END OF INPUT****
================================================================================

                       *****************************
                       * Geometry Optimization Run *
                       *****************************

Geometry optimization settings:
Update method            Update   .... BFGS
Choice of coordinates    CoordSys .... Redundant Internals
Initial Hessian          InHess   .... Almoef's Model

Convergence Tolerances:
Energy Change            TolE     ....  5.0000e-06 Eh
Max. Gradient            TolMAXG  ....  3.0000e-04 Eh/bohr
RMS Gradient             TolRMSG  ....  1.0000e-04 Eh/bohr
Max. Displacement        TolMAXD  ....  4.0000e-03 bohr
RMS Displacement         TolRMSD  ....  2.0000e-03 bohr

------------------------------------------------------------------------------
                        ORCA OPTIMIZATION COORDINATE SETUP
------------------------------------------------------------------------------

The optimization will be done in new redundant internal coordinates
Making redundant internal coordinates   ...  (new redundants) done
Evaluating the initial hessian          ...  (Almloef) done
Evaluating the coordinates              ...  done
Calculating the B-matrix                .... done
Calculating the G-matrix                .... done
Diagonalizing the G-matrix              .... done
Small eigenvalue found = 1.058e-02
Small eigenvalue found = 1.410e-02
Small eigenvalue found = 2.716e-02
Small eigenvalue found = 2.830e-02
The first mode is                       ....  118
The number of degrees of freedom        ....  117

    -----------------------------------------------------------------
                    Redundant Internal Coordinates


    -----------------------------------------------------------------
         Definition                    Initial Value    Approx d2E/dq
    -----------------------------------------------------------------
      1. B(C   1,C   0)                  1.3932         0.617606   
      2. B(O   2,C   1)                  1.3085         0.754890   
      3. B(O   3,C   0)                  1.3382         0.676999   
      4. B(C   4,O   2)                  1.3161         0.734274   
      5. B(C   5,O   3)                  1.3853         0.569330   
      6. B(C   6,C   5)                  1.5633         0.330517   
      7. B(C   7,C   0)                  1.3740         0.662691   
      8. B(C   7,C   6)                  1.4917         0.429974   
      9. B(C   8,C   1)                  1.3893         0.626500   
     10. B(C   9,C   7)                  1.4120         0.576233   
     11. B(C  10,C   9)                  1.3973         0.608263   
     12. B(C  10,C   8)                  1.4242         0.551115   
     13. B(C  11,C   8)                  1.3951         0.613251   
     14. B(C  11,C   4)                  1.3979         0.606878   
     15. B(C  12,C   4)                  1.4949         0.424925   
     16. B(H  13,C  12)                  1.1101         0.334443   
     17. B(H  14,C  12)                  1.1100         0.334629   
     18. B(H  15,C  12)                  1.1099         0.334667   
     19. B(C  16,C   5)                  1.5310         0.372164   
     20. B(H  17,C   5)                  1.1129         0.331059   
     21. B(H  18,C  16)                  1.1107         0.333700   
     22. B(H  19,C  16)                  1.1114         0.332887   
     23. B(H  20,C  16)                  1.1107         0.333737   
     24. B(C  21,C   6)                  1.5381         0.362650   
     25. B(H  22,C   6)                  1.1118         0.332383   
     26. B(H  23,C  21)                  1.1107         0.333776   
     27. B(H  24,C  21)                  1.1122         0.331926   
     28. B(H  25,C  21)                  1.1006         0.346355   
     29. B(C  26,C   9)                  1.3862         0.633512   
     30. B(C  27,C  10)                  1.3960         0.611224   
     31. B(O  28,C  26)                  1.3153         0.736280   
     32. B(O  28,C  27)                  1.3186         0.727306   
     33. B(C  29,C  27)                  1.4898         0.432977   
     34. B(H  30,C  29)                  1.1060         0.339566   
     35. B(H  31,C  29)                  1.1056         0.340047   
     36. B(H  32,C  29)                  1.1103         0.334245   
     37. B(C  33,C  26)                  1.4949         0.424979   
     38. B(H  34,C  33)                  1.1096         0.335106   
     39. B(H  35,C  33)                  1.1012         0.345568   
     40. B(H  36,C  33)                  1.1101         0.334443   
     41. B(C  37,C  11)                  1.4966         0.422270   
     42. B(H  38,C  37)                  1.1088         0.336128   
     43. B(H  39,C  37)                  1.1054         0.340279   
     44. B(H  40,C  37)                  1.1060         0.339541   
     45. A(O   3,C   0,C   7)          113.0473         0.443409   
     46. A(C   1,C   0,C   7)          120.4335         0.438999   
     47. A(C   1,C   0,O   3)          126.5138         0.437802   
     48. A(C   0,C   1,O   2)          126.8118         0.446506   
     49. A(O   2,C   1,C   8)          111.6889         0.447665   
     50. A(C   0,C   1,C   8)          121.4989         0.434579   
     51. A(C   1,O   2,C   4)          107.6263         0.457726   
     52. A(C   0,O   3,C   5)          110.3044         0.428617   
     53. A(O   2,C   4,C  12)          122.8506         0.415441   
     54. A(C  11,C   4,C  12)          126.5410         0.404255   
     55. A(O   2,C   4,C  11)          110.6083         0.442866   
     56. A(O   3,C   5,H  17)          111.2279         0.340895   
     57. A(O   3,C   5,C   6)          105.9324         0.380138   
     58. A(C   6,C   5,C  16)          111.7368         0.355623   
     59. A(C  16,C   5,H  17)          107.8641         0.319685   
     60. A(O   3,C   5,C  16)          108.3529         0.388064   
     61. A(C   6,C   5,H  17)          111.7087         0.313571   
     62. A(C   5,C   6,C   7)          101.1677         0.364481   
     63. A(C   7,C   6,H  22)          113.6000         0.327564   
     64. A(C  21,C   6,H  22)          110.5957         0.318544   
     65. A(C   5,C   6,H  22)          112.0047         0.313774   
     66. A(C   7,C   6,C  21)          109.5998         0.370327   
     67. A(C   5,C   6,C  21)          109.4746         0.354065   
     68. A(C   0,C   7,C   9)          119.3982         0.433550   
     69. A(C   0,C   7,C   6)          107.5059         0.411457   
     70. A(C   6,C   7,C   9)          133.0519         0.401414   
     71. A(C   1,C   8,C  10)          118.6696         0.425783   
     72. A(C  10,C   8,C  11)          136.5840         0.424158   
     73. A(C   1,C   8,C  11)          104.7440         0.434026   
     74. A(C   7,C   9,C  10)          120.7561         0.426931   
     75. A(C   7,C   9,C  26)          132.6183         0.430056   
     76. A(C  10,C   9,C  26)          106.6100         0.434257   
     77. A(C   8,C  10,C  27)          135.5663         0.423907   
     78. A(C   9,C  10,C  27)          105.2016         0.431470   
     79. A(C   8,C  10,C   9)          119.2313         0.423539   
     80. A(C   4,C  11,C   8)          105.3321         0.431550   
     81. A(C   4,C  11,C  37)          124.8285         0.403808   
     82. A(C   8,C  11,C  37)          129.8394         0.404553   
     83. A(H  14,C  12,H  15)          109.5595         0.284252   
     84. A(H  13,C  12,H  15)          108.8489         0.284227   
     85. A(C   4,C  12,H  15)          109.7782         0.327296   
     86. A(H  13,C  12,H  14)          108.8440         0.284222   
     87. A(C   4,C  12,H  14)          109.7751         0.327290   
     88. A(C   4,C  12,H  13)          110.0138         0.327260   
     89. A(H  19,C  16,H  20)          108.8007         0.283899   
     90. A(H  18,C  16,H  20)          108.5582         0.284006   
     91. A(C   5,C  16,H  20)          109.8391         0.320106   
     92. A(H  18,C  16,H  19)          108.9666         0.283894   
     93. A(C   5,C  16,H  19)          110.6224         0.319973   
     94. A(C   5,C  16,H  18)          110.0109         0.320100   
     95. A(H  24,C  21,H  25)          107.4418         0.285414   
     96. A(H  23,C  21,H  25)          107.9116         0.285661   
     97. A(C   6,C  21,H  25)          112.5079         0.320693   
     98. A(H  23,C  21,H  24)          108.4499         0.283776   
     99. A(C   6,C  21,H  24)          110.7671         0.318473   
    100. A(C   6,C  21,H  23)          109.6303         0.318762   
    101. A(C   9,C  26,O  28)          108.8517         0.446544   
    102. A(O  28,C  26,C  33)          122.3311         0.415652   
    103. A(C   9,C  26,C  33)          128.7734         0.407344   
    104. A(O  28,C  27,C  29)          120.9914         0.416124   
    105. A(C  10,C  27,C  29)          129.8414         0.406109   
    106. A(C  10,C  27,O  28)          109.1634         0.442674   
    107. A(C  26,O  28,C  27)          110.1655         0.454858   
    108. A(C  27,C  29,H  32)          109.5027         0.328242   
    109. A(H  30,C  29,H  31)          112.0298         0.285609   
    110. A(C  27,C  29,H  31)          110.1375         0.329176   
    111. A(C  27,C  29,H  30)          110.1658         0.329099   
    112. A(H  31,C  29,H  32)          107.3973         0.284907   
    113. A(H  30,C  29,H  32)          107.5088         0.284844   
    114. A(H  35,C  33,H  36)          107.1753         0.285649   
    115. A(H  34,C  33,H  36)          108.5971         0.284285   
    116. A(C  26,C  33,H  36)          109.5112         0.327267   
    117. A(H  34,C  33,H  35)          110.1420         0.285737   
    118. A(C  26,C  33,H  35)          111.5463         0.329038   
    119. A(C  26,C  33,H  34)          109.7895         0.327374   
    120. A(H  39,C  37,H  40)          111.7724         0.285636   
    121. A(H  38,C  37,H  40)          107.0365         0.285090   
    122. A(C  11,C  37,H  40)          109.8908         0.327738   
    123. A(H  38,C  37,H  39)          106.9082         0.285187   
    124. A(C  11,C  37,H  39)          109.9321         0.327856   
    125. A(C  11,C  37,H  38)          111.2442         0.327193   
    126. D(O   2,C   1,C   0,O   3)      1.2506         0.026382   
    127. D(O   2,C   1,C   0,C   7)   -179.6512         0.026382   
    128. D(C   8,C   1,C   0,O   3)   -178.4952         0.026382   
    129. D(C   8,C   1,C   0,C   7)      0.6030         0.026382   
    130. D(C   4,O   2,C   1,C   8)     -0.1899         0.043342   
    131. D(C   4,O   2,C   1,C   0)   -179.9567         0.043342   
    132. D(C   5,O   3,C   0,C   1)    173.3162         0.034110   
    133. D(C   5,O   3,C   0,C   7)     -5.8388         0.034110   
    134. D(C  11,C   4,O   2,C   1)      0.1583         0.040764   
    135. D(C  12,C   4,O   2,C   1)   -179.9565         0.040764   
    136. D(C   6,C   5,O   3,C   0)     12.6460         0.025937   
    137. D(H  17,C   5,O   3,C   0)    134.2168         0.025937   
    138. D(C  16,C   5,O   3,C   0)   -107.3857         0.025937   
    139. D(C   7,C   6,C   5,O   3)    -14.0485         0.008893   
    140. D(C   7,C   6,C   5,C  16)    103.7476         0.008893   
    141. D(H  22,C   6,C   5,H  17)    103.3634         0.008893   
    142. D(H  22,C   6,C   5,C  16)    -17.5793         0.008893   
    143. D(H  22,C   6,C   5,O   3)   -135.3754         0.008893   
    144. D(C  21,C   6,C   5,H  17)    -19.6845         0.008893   
    145. D(C  21,C   6,C   5,C  16)   -140.6272         0.008893   
    146. D(C  21,C   6,C   5,O   3)    101.5767         0.008893   
    147. D(C   7,C   6,C   5,H  17)   -135.3097         0.008893   
    148. D(C   9,C   7,C   6,C   5)   -171.6528         0.013654   
    149. D(C   0,C   7,C   6,C  21)   -104.6758         0.013654   
    150. D(C   9,C   7,C   6,C  21)     72.8147         0.013654   
    151. D(C   0,C   7,C   6,C   5)     10.8566         0.013654   
    152. D(C   9,C   7,C   0,O   3)    177.9727         0.030663   
    153. D(C   0,C   7,C   6,H  22)    131.0568         0.013654   
    154. D(C   9,C   7,C   0,C   1)     -1.2397         0.030663   
    155. D(C   6,C   7,C   0,O   3)     -4.1319         0.030663   
    156. D(C   6,C   7,C   0,C   1)    176.6557         0.030663   
    157. D(C   9,C   7,C   6,H  22)    -51.4526         0.013654   
    158. D(C  11,C   8,C   1,O   2)      0.1449         0.027195   
    159. D(C  11,C   8,C   1,C   0)    179.9259         0.027195   
    160. D(C  10,C   8,C   1,O   2)   -179.3820         0.027195   
    161. D(C  10,C   8,C   1,C   0)      0.3990         0.027195   
    162. D(C  26,C   9,C   7,C   6)      5.2864         0.022799   
    163. D(C  26,C   9,C   7,C   0)   -177.4607         0.022799   
    164. D(C  10,C   9,C   7,C   6)   -176.3619         0.022799   
    165. D(C  10,C   9,C   7,C   0)      0.8910         0.022799   
    166. D(C  27,C  10,C   9,C  26)     -0.8796         0.025544   
    167. D(C   8,C  10,C   9,C  26)    178.8356         0.025544   
    168. D(C   8,C  10,C   9,C   7)      0.1014         0.025544   
    169. D(C  27,C  10,C   8,C  11)     -0.4618         0.020781   
    170. D(C  27,C  10,C   8,C   1)    178.8725         0.020781   
    171. D(C  27,C  10,C   9,C   7)   -179.6139         0.025544   
    172. D(C   9,C  10,C   8,C  11)    179.9307         0.020781   
    173. D(C   9,C  10,C   8,C   1)     -0.7350         0.020781   
    174. D(C  37,C  11,C   8,C  10)     -0.5680         0.025990   
    175. D(C   4,C  11,C   8,C  10)    179.3525         0.025990   
    176. D(C   4,C  11,C   8,C   1)     -0.0435         0.025990   
    177. D(C  37,C  11,C   4,C  12)     -0.0223         0.025422   
    178. D(C  37,C  11,C   4,O   2)    179.8576         0.025422   
    179. D(C  37,C  11,C   8,C   1)   -179.9641         0.025990   
    180. D(C   8,C  11,C   4,C  12)   -179.9480         0.025422   
    181. D(C   8,C  11,C   4,O   2)     -0.0681         0.025422   
    182. D(H  15,C  12,C   4,C  11)    -60.3133         0.013343   
    183. D(H  15,C  12,C   4,O   2)    119.8205         0.013343   
    184. D(H  14,C  12,C   4,C  11)     60.1743         0.013343   
    185. D(H  14,C  12,C   4,O   2)   -119.6920         0.013343   
    186. D(H  13,C  12,C   4,C  11)    179.9265         0.013343   
    187. D(H  13,C  12,C   4,O   2)      0.0602         0.013343   
    188. D(H  18,C  16,C   5,O   3)    179.1375         0.011064   
    189. D(H  20,C  16,C   5,C   6)   -177.7591         0.011064   
    190. D(H  20,C  16,C   5,O   3)    -61.4243         0.011064   
    191. D(H  19,C  16,C   5,H  17)    179.2103         0.011064   
    192. D(H  19,C  16,C   5,C   6)    -57.6371         0.011064   
    193. D(H  19,C  16,C   5,O   3)     58.6977         0.011064   
    194. D(H  18,C  16,C   5,H  17)    -60.3499         0.011064   
    195. D(H  20,C  16,C   5,H  17)     59.0883         0.011064   
    196. D(H  18,C  16,C   5,C   6)     62.8027         0.011064   
    197. D(H  25,C  21,C   6,H  22)     61.9224         0.010541   
    198. D(H  25,C  21,C   6,C   5)   -174.1986         0.010541   
    199. D(H  24,C  21,C   6,H  22)   -177.8041         0.010541   
    200. D(H  24,C  21,C   6,C   7)     56.1949         0.010541   
    201. D(H  24,C  21,C   6,C   5)    -53.9250         0.010541   
    202. D(H  23,C  21,C   6,H  22)    -58.1604         0.010541   
    203. D(H  25,C  21,C   6,C   7)    -64.0786         0.010541   
    204. D(H  23,C  21,C   6,C   7)    175.8386         0.010541   
    205. D(H  23,C  21,C   6,C   5)     65.7187         0.010541   
    206. D(C  33,C  26,C   9,C  10)   -176.9340         0.027847   
    207. D(C  33,C  26,C   9,C   7)      1.5878         0.027847   
    208. D(O  28,C  26,C   9,C  10)      0.6670         0.027847   
    209. D(O  28,C  26,C   9,C   7)    179.1889         0.027847   
    210. D(C  29,C  27,C  10,C   9)   -179.9076         0.025808   
    211. D(C  29,C  27,C  10,C   8)      0.4473         0.025808   
    212. D(O  28,C  27,C  10,C   9)      0.8105         0.025808   
    213. D(O  28,C  27,C  10,C   8)   -178.8346         0.025808   
    214. D(C  26,O  28,C  27,C  29)   -179.7753         0.039916   
    215. D(C  26,O  28,C  27,C  10)     -0.4185         0.039916   
    216. D(C  27,O  28,C  26,C  33)    177.6259         0.041011   
    217. D(C  27,O  28,C  26,C   9)     -0.1608         0.041011   
    218. D(H  32,C  29,C  27,O  28)     -0.6299         0.013841   
    219. D(H  32,C  29,C  27,C  10)   -179.8387         0.013841   
    220. D(H  31,C  29,C  27,O  28)    117.2564         0.013841   
    221. D(H  31,C  29,C  27,C  10)    -61.9523         0.013841   
    222. D(H  30,C  29,C  27,O  28)   -118.6692         0.013841   
    223. D(H  30,C  29,C  27,C  10)     62.1220         0.013841   
    224. D(H  36,C  33,C  26,O  28)     -1.1083         0.013346   
    225. D(H  36,C  33,C  26,C   9)    176.2047         0.013346   
    226. D(H  35,C  33,C  26,O  28)    117.3639         0.013346   
    227. D(H  35,C  33,C  26,C   9)    -65.3231         0.013346   
    228. D(H  34,C  33,C  26,O  28)   -120.2565         0.013346   
    229. D(H  34,C  33,C  26,C   9)     57.0564         0.013346   
    230. D(H  40,C  37,C  11,C   8)    -61.4299         0.013181   
    231. D(H  40,C  37,C  11,C   4)    118.6634         0.013181   
    232. D(H  39,C  37,C  11,C   8)     61.9913         0.013181   
    233. D(H  39,C  37,C  11,C   4)   -117.9154         0.013181   
    234. D(H  38,C  37,C  11,C   8)   -179.7857         0.013181   
    235. D(H  38,C  37,C  11,C   4)      0.3076         0.013181   
    -----------------------------------------------------------------

Number of atoms                         .... 41
Number of degrees of freedom            .... 235

         *************************************************************
         *                GEOMETRY OPTIMIZATION CYCLE   1            *
         *************************************************************
---------------------------------
CARTESIAN COORDINATES (ANGSTROEM)
---------------------------------
  C     -0.472190   -1.046670    0.471050
  C      0.913190   -0.981460    0.339370
  O      1.648780    0.100530    0.319120
  O     -1.311490   -0.009970    0.578250
  C      2.902910   -0.272780    0.178460
  C     -2.624880   -0.448980    0.541510
  C     -2.563640   -2.001120    0.717940
  C     -1.113730   -2.261610    0.483100
  C      1.684340   -2.129160    0.204640
  C     -0.358820   -3.445570    0.334220
  C      1.030480   -3.394300    0.193990
  C      2.995820   -1.665350    0.099090
  C      4.036310    0.699960    0.114990
  H      3.651890    1.737580    0.204060
  H      4.566510    0.596060   -0.854610
  H      4.743970    0.506980    0.948020
  C     -3.227150   -0.055260   -0.809900
  H     -3.233110    0.032350    1.339570
  H     -4.278140   -0.408650   -0.875080
  H     -2.643510   -0.501910   -1.643600
  H     -3.218460    1.050050   -0.918800
  C     -2.925460   -2.367120    2.167360
  H     -3.232120   -2.528350    0.002910
  H     -3.986040   -2.103280    2.365180
  H     -2.284440   -1.811050    2.886260
  H     -2.799330   -3.440590    2.374870
  C     -0.715370   -4.783170    0.261220
  C      1.434530   -4.724130    0.063410
  O      0.372740   -5.505050    0.103300
  C      2.799630   -5.293910   -0.113930
  H      3.429900   -5.053620    0.762550
  H      3.244950   -4.928530   -1.057610
  H      2.733340   -6.399960   -0.184530
  C     -2.080820   -5.390990    0.290290
  H     -2.698360   -4.966780   -0.528160
  H     -2.574930   -5.229220    1.261040
  H     -2.001470   -6.488250    0.141660
  C      4.272410   -2.428790   -0.066530
  H      5.145240   -1.746670   -0.113560
  H      4.253590   -2.992820   -1.017030
  H      4.428070   -3.094750    0.802670

----------------------------
CARTESIAN COORDINATES (A.U.)
----------------------------
  NO LB      ZA    FRAG     MASS         X           Y           Z
   0 C     6.0000    0    12.011   -0.892310   -1.977920    0.890155
   1 C     6.0000    0    12.011    1.725679   -1.854691    0.641316
   2 O     8.0000    0    15.999    3.115743    0.189974    0.603049
   3 O     8.0000    0    15.999   -2.478357   -0.018841    1.092734
   4 C     6.0000    0    12.011    5.485705   -0.515479    0.337241
   5 C     6.0000    0    12.011   -4.960304   -0.848449    1.023306
   6 C     6.0000    0    12.011   -4.844578   -3.781569    1.356710
   7 C     6.0000    0    12.011   -2.104645   -4.273824    0.912927
   8 C     6.0000    0    12.011    3.182941   -4.023529    0.386714
   9 C     6.0000    0    12.011   -0.678072   -6.511184    0.631584
  10 C     6.0000    0    12.011    1.947325   -6.414297    0.366588
  11 C     6.0000    0    12.011    5.661279   -3.147055    0.187253
  12 C     6.0000    0    12.011    7.627520    1.322733    0.217300
  13 H     1.0000    0     1.008    6.901072    3.283550    0.385618
  14 H     1.0000    0     1.008    8.629453    1.126390   -1.614979
  15 H     1.0000    0     1.008    8.964804    0.958053    1.791498
  16 C     6.0000    0    12.011   -6.098430   -0.104426   -1.530489
  17 H     1.0000    0     1.008   -6.109692    0.061133    2.531420
  18 H     1.0000    0     1.008   -8.084513   -0.772237   -1.653662
  19 H     1.0000    0     1.008   -4.995510   -0.948472   -3.105954
  20 H     1.0000    0     1.008   -6.082008    1.984307   -1.736280
  21 C     6.0000    0    12.011   -5.528318   -4.473209    4.095717
  22 H     1.0000    0     1.008   -6.107822   -4.777889    0.005499
  23 H     1.0000    0     1.008   -7.532524   -3.974623    4.469542
  24 H     1.0000    0     1.008   -4.316966   -3.422389    5.454241
  25 H     1.0000    0     1.008   -5.289967   -6.501773    4.487854
  26 C     6.0000    0    12.011   -1.351853   -9.038881    0.493634
  27 C     6.0000    0    12.011    2.710869   -8.927312    0.119828
  28 O     8.0000    0    15.999    0.704377  -10.403037    0.195209
  29 C     6.0000    0    12.011    5.290534  -10.004040   -0.215296
  30 H     1.0000    0     1.008    6.481572   -9.549958    1.441011
  31 H     1.0000    0     1.008    6.132067   -9.313572   -1.998593
  32 H     1.0000    0     1.008    5.165264  -12.094172   -0.348711
  33 C     6.0000    0    12.011   -3.932180  -10.187495    0.548569
  34 H     1.0000    0     1.008   -5.099161   -9.385854   -0.998078
  35 H     1.0000    0     1.008   -4.865913   -9.881794    2.383020
  36 H     1.0000    0     1.008   -3.782230  -12.261016    0.267699
  37 C     6.0000    0    12.011    8.073685   -4.589748   -0.125723
  38 H     1.0000    0     1.008    9.723094   -3.300728   -0.214597
  39 H     1.0000    0     1.008    8.038120   -5.655610   -1.921908
  40 H     1.0000    0     1.008    8.367840   -5.848230    1.516826

--------------------------------
INTERNAL COORDINATES (ANGSTROEM)
--------------------------------
 C      0   0   0     0.000000000000     0.00000000     0.00000000
 C      1   0   0     1.393151000753     0.00000000     0.00000000
 O      2   1   0     1.308512541285   126.81183003     0.00000000
 O      1   2   3     1.338156650023   126.51381862     1.25062181
 C      3   2   1     1.316050017515   107.62634384   180.04328004
 C      4   1   2     1.385306067192   110.30440954   173.31615472
 C      6   4   1     1.563335044736   105.93241141    12.64602389
 C      1   2   3     1.373971607312   120.43350136   180.34880474
 C      2   1   3     1.389258717950   121.49885934   180.25416948
 C      8   1   2     1.412025369496   119.39821983   358.76031736
 C     10   8   1     1.397300095112   120.75605419     0.89095946
 C      9   2   1     1.395077169550   104.74400515   179.92586611
 C      5   3   2     1.494940503331   122.85057706   180.04348686
 H     13   5   3     1.110120473507   110.01378705     0.06022977
 H     13   5   3     1.109969103174   109.77507901   240.30804994
 H     13   5   3     1.109938258148   109.77816721   119.82046870
 C      6   4   1     1.531030234646   108.35288290   252.61428554
 H      6   4   1     1.112889062486   111.22790981   134.21676285
 H     17   6   4     1.110726295988   110.01088910   179.13753741
 H     17   6   4     1.111389923519   110.62240769    58.69771320
 H     17   6   4     1.110695692888   109.83906319   298.57570050
 C      7   6   4     1.538079337616   109.47464383   101.57669676
 H      7   6   4     1.111802538313   112.00473398   224.62458490
 H     22   7   6     1.110663871025   109.63025106    65.71871472
 H     22   7   6     1.112177007180   110.76706713   306.07499744
 H     22   7   6     1.100593938699   112.50791306   185.80144459
 C     10   8   1     1.386228935818   132.61827243   182.53928731
 C     11  10   8     1.395978283427   105.20155687   180.38608429
 O     27  10   8     1.315307124933   108.85168486   179.18887035
 C     28  11  10     1.489831109220   129.84139612   180.09242385
 H     30  28  11     1.105982254559   110.16580857    62.12203845
 H     30  28  11     1.105596847499   110.13750361   298.04766098
 H     30  28  11     1.110281642918   109.50265461   180.16133304
 C     27  10   8     1.494905990288   128.77337437     1.58782948
 H     34  27  10     1.109581082301   109.78946997    57.05644970
 H     34  27  10     1.101212871111   111.54629100   294.67693309
 H     34  27  10     1.110120176828   109.51122679   176.20472321
 C     12   9   2     1.496647134798   129.83940123   180.03592248
 H     38  12   9     1.108752327709   111.24421342   180.21430657
 H     38  12   9     1.105411363837   109.93211518    61.99130205
 H     38  12   9     1.106002439961   109.89075684   298.57005024

---------------------------
INTERNAL COORDINATES (A.U.)
---------------------------
 C      0   0   0     0.000000000000     0.00000000     0.00000000
 C      1   0   0     2.632673854622     0.00000000     0.00000000
 O      2   1   0     2.472730345830   126.81183003     0.00000000
 O      1   2   3     2.528749592828   126.51381862     1.25062181
 C      3   2   1     2.486974111645   107.62634384   180.04328004
 C      4   1   2     2.617849078653   110.30440954   173.31615472
 C      6   4   1     2.954275090113   105.93241141    12.64602389
 C      1   2   3     2.596430053604   120.43350136   180.34880474
 C      2   1   3     2.625318506088   121.49885934   180.25416948
 C      8   1   2     2.668341242496   119.39821983   358.76031736
 C     10   8   1     2.640514506664   120.75605419     0.89095946
 C      9   2   1     2.636313786136   104.74400515   179.92586611
 C      5   3   2     2.825028137802   122.85057706   180.04348686
 H     13   5   3     2.097823670588   110.01378705     0.06022977
 H     13   5   3     2.097537622112   109.77507901   240.30804994
 H     13   5   3     2.097479333461   109.77816721   119.82046870
 C      6   4   1     2.893227846234   108.35288290   252.61428554
 H      6   4   1     2.103055545534   111.22790981   134.21676285
 H     17   6   4     2.098968509163   110.01088910   179.13753741
 H     17   6   4     2.100222583451   110.62240769    58.69771320
 H     17   6   4     2.098910677684   109.83906319   298.57570050
 C      7   6   4     2.906548720336   109.47464383   101.57669676
 H      7   6   4     2.101002312411   112.00473398   224.62458490
 H     22   7   6     2.098850543078   109.63025106    65.71871472
 H     22   7   6     2.101709956014   110.76706713   306.07499744
 H     22   7   6     2.079821128794   112.50791306   185.80144459
 C     10   8   1     2.619593047614   132.61827243   182.53928731
 C     11  10   8     2.638016644579   105.20155687   180.38608429
 O     27  10   8     2.485570248119   108.85168486   179.18887035
 C     28  11  10     2.815372782222   129.84139612   180.09242385
 H     30  28  11     2.090003570094   110.16580857    62.12203845
 H     30  28  11     2.089275256300   110.13750361   298.04766098
 H     30  28  11     2.098128236635   109.50265461   180.16133304
 C     27  10   8     2.824962917603   128.77337437     1.58782948
 H     34  27  10     2.096804368929   109.78946997    57.05644970
 H     34  27  10     2.080990741548   111.54629100   294.67693309
 H     34  27  10     2.097823109945   109.51122679   176.20472321
 C     12   9   2     2.828253203887   129.83940123   180.03592248
 H     38  12   9     2.095238249718   111.24421342   180.21430657
 H     38  12   9     2.088924742976   109.93211518    61.99130205
 H     38  12   9     2.090041714975   109.89075684   298.57005024

---------------------
BASIS SET INFORMATION
---------------------
There are 3 groups of distinct atoms

 Group   1 Type C   : 12s7p2d1f contracted to 6s4p2d1f pattern {621111/4111/11/1}
 Group   2 Type O   : 12s7p2d1f contracted to 6s4p2d1f pattern {621111/4111/11/1}
 Group   3 Type H   : 5s1p contracted to 3s1p pattern {311/1}

Atom   0C    basis set group =>   1
Atom   1C    basis set group =>   1
Atom   2O    basis set group =>   2
Atom   3O    basis set group =>   2
Atom   4C    basis set group =>   1
Atom   5C    basis set group =>   1
Atom   6C    basis set group =>   1
Atom   7C    basis set group =>   1
Atom   8C    basis set group =>   1
Atom   9C    basis set group =>   1
Atom  10C    basis set group =>   1
Atom  11C    basis set group =>   1
Atom  12C    basis set group =>   1
Atom  13H    basis set group =>   3
Atom  14H    basis set group =>   3
Atom  15H    basis set group =>   3
Atom  16C    basis set group =>   1
Atom  17H    basis set group =>   3
Atom  18H    basis set group =>   3
Atom  19H    basis set group =>   3
Atom  20H    basis set group =>   3
Atom  21C    basis set group =>   1
Atom  22H    basis set group =>   3
Atom  23H    basis set group =>   3
Atom  24H    basis set group =>   3
Atom  25H    basis set group =>   3
Atom  26C    basis set group =>   1
Atom  27C    basis set group =>   1
Atom  28O    basis set group =>   2
Atom  29C    basis set group =>   1
Atom  30H    basis set group =>   3
Atom  31H    basis set group =>   3
Atom  32H    basis set group =>   3
Atom  33C    basis set group =>   1
Atom  34H    basis set group =>   3
Atom  35H    basis set group =>   3
Atom  36H    basis set group =>   3
Atom  37C    basis set group =>   1
Atom  38H    basis set group =>   3
Atom  39H    basis set group =>   3
Atom  40H    basis set group =>   3

-------------------------
BASIS SET IN INPUT FORMAT
-------------------------

 # Basis set for element : H 
 NewGTO H 
 S 3 
   1      34.0613410000      0.0254393072
   2       5.1235746000      0.1900859489
   3       1.1646626000      0.8524411301
 S 1 
   1       0.3272304100      1.0000000000
 S 1 
   1       0.1030724100      1.0000000000
 P 1 
   1       0.8000000000      1.0000000000
  end;

 # Basis set for element : C 
 NewGTO C 
 S 6 
   1   13575.3496820000      0.0006064549
   2    2035.2333680000      0.0046979088
   3     463.2256235900      0.0243324776
   4     131.2001959800      0.0973999683
   5      42.8530158910      0.3019558425
   6      15.5841857660      0.6623360915
 S 2 
   1       6.2067138508      0.6559530854
   2       2.5764896527      0.3758563329
 S 1 
   1       0.5769633942      1.0000000000
 S 1 
   1       0.2297283136      1.0000000000
 S 1 
   1       0.0951644400      1.0000000000
 P 4 
   1      34.6972322440      0.0113272200
   2       7.9582622826      0.0761696592
   3       2.3780826883      0.3019225220
   4       0.8143320818      0.7278502735
 P 1 
   1       0.2888754725      1.0000000000
 P 1 
   1       0.1005682367      1.0000000000
 D 1 
   1       1.0970000000      1.0000000000
 D 1 
   1       0.3180000000      1.0000000000
 F 1 
   1       0.7610000000      1.0000000000
 S 1 
   1       0.0317214800      1.0000000000
 P 1 
   1       0.0335227456      1.0000000000
  end;

 # Basis set for element : O 
 NewGTO O 
 S 6 
   1   27032.3826310000      0.0005722733
   2    4052.3871392000      0.0044353233
   3     922.3272271000      0.0230201076
   4     261.2407098900      0.0928224906
   5      85.3546413510      0.2937850002
   6      31.0350352450      0.6740160450
 S 2 
   1      12.2608607280      0.6383993702
   2       4.9987076005      0.3953458713
 S 1 
   1       1.1703108158      1.0000000000
 S 1 
   1       0.4647474099      1.0000000000
 S 1 
   1       0.1850453636      1.0000000000
 P 4 
   1      63.2749548010      0.0120183321
   2      14.6270493790      0.0830054217
   3       4.4501223456      0.3199174393
   4       1.5275799647      0.7071554292
 P 1 
   1       0.5293511794      1.0000000000
 P 1 
   1       0.1747842127      1.0000000000
 D 1 
   1       2.3140000000      1.0000000000
 D 1 
   1       0.6450000000      1.0000000000
 F 1 
   1       1.4280000000      1.0000000000
 S 1 
   1       0.0616817879      1.0000000000
 P 1 
   1       0.0582614042      1.0000000000
  end;

-------------------------------
AUXILIARY BASIS SET INFORMATION
-------------------------------
There are 3 groups of distinct atoms

 Group   1 Type C   : 12s5p4d2f1g contracted to 6s4p3d1f1g pattern {711111/2111/211/2/1}
 Group   2 Type O   : 12s5p4d2f1g contracted to 6s4p3d1f1g pattern {711111/2111/211/2/1}
 Group   3 Type H   : 5s2p1d contracted to 3s1p1d pattern {311/2/1}

Atom   0C    basis set group =>   1
Atom   1C    basis set group =>   1
Atom   2O    basis set group =>   2
Atom   3O    basis set group =>   2
Atom   4C    basis set group =>   1
Atom   5C    basis set group =>   1
Atom   6C    basis set group =>   1
Atom   7C    basis set group =>   1
Atom   8C    basis set group =>   1
Atom   9C    basis set group =>   1
Atom  10C    basis set group =>   1
Atom  11C    basis set group =>   1
Atom  12C    basis set group =>   1
Atom  13H    basis set group =>   3
Atom  14H    basis set group =>   3
Atom  15H    basis set group =>   3
Atom  16C    basis set group =>   1
Atom  17H    basis set group =>   3
Atom  18H    basis set group =>   3
Atom  19H    basis set group =>   3
Atom  20H    basis set group =>   3
Atom  21C    basis set group =>   1
Atom  22H    basis set group =>   3
Atom  23H    basis set group =>   3
Atom  24H    basis set group =>   3
Atom  25H    basis set group =>   3
Atom  26C    basis set group =>   1
Atom  27C    basis set group =>   1
Atom  28O    basis set group =>   2
Atom  29C    basis set group =>   1
Atom  30H    basis set group =>   3
Atom  31H    basis set group =>   3
Atom  32H    basis set group =>   3
Atom  33C    basis set group =>   1
Atom  34H    basis set group =>   3
Atom  35H    basis set group =>   3
Atom  36H    basis set group =>   3
Atom  37C    basis set group =>   1
Atom  38H    basis set group =>   3
Atom  39H    basis set group =>   3
Atom  40H    basis set group =>   3

-----------------------------------
AUXILIARY BASIS SET IN INPUT FORMAT
-----------------------------------

 # Auxiliary basis set for element : H 
 NewAuxGTO H 
 S 3 
   1      15.6752927000      0.1007184237
   2       3.6063578000      0.3404257499
   3       1.2080016000      0.6491996172
 S 1 
   1       0.4726794000      1.0000000000
 S 1 
   1       0.2018100000      1.0000000000
 P 2 
   1       2.0281365000      0.5596620919
   2       0.5358730000      0.5596620919
 D 1 
   1       2.2165124000      1.0000000000
  end;

 # Auxiliary basis set for element : C 
 NewAuxGTO C 
 S 7 
   1    1861.0916331000      0.0134602335
   2     642.9939764000      0.0299160374
   3     235.1105725000      0.1008649584
   4      90.7028894000      0.2370970548
   5      36.7794552000      0.3924037254
   6      15.6046273000      0.3195862154
   7       6.8907294000      0.0530104441
 S 1 
   1       3.1478850000     -1.0000000000
 S 1 
   1       1.4777287000      1.0000000000
 S 1 
   1       0.7076466000      1.0000000000
 S 1 
   1       0.3430122000      1.0000000000
 S 1 
   1       0.1669453000      1.0000000000
 P 2 
   1      13.5472892000     -0.6769313712
   2       5.4669419000     -0.3779500978
 P 1 
   1       2.1751721000      1.0000000000
 P 1 
   1       0.8582194000      1.0000000000
 P 1 
   1       0.3376720000      1.0000000000
 D 2 
   1       5.9287253000     -0.3533329857
   2       1.9809209000     -0.7456525731
 D 1 
   1       0.8055417000     -1.0000000000
 D 1 
   1       0.3531244000     -1.0000000000
 F 2 
   1       1.6755626000      0.6311076882
   2       0.5997536000      0.4968166032
 G 1 
   1       1.0024600000     -1.0000000000
  end;

 # Auxiliary basis set for element : O 
 NewAuxGTO O 
 S 7 
   1    2876.8216605000      0.0168151159
   2    1004.7443032000      0.0340137548
   3     369.7579954000      0.1194951309
   4     142.9442404000      0.2664627624
   5      57.8366425000      0.4202764046
   6      24.3864983000      0.2765077335
   7      10.6622662000      0.0057008815
 S 1 
   1       4.8070437000     -1.0000000000
 S 1 
   1       2.2210770000      1.0000000000
 S 1 
   1       1.0447795000      1.0000000000
 S 1 
   1       0.4968425000      1.0000000000
 S 1 
   1       0.2371384000      1.0000000000
 P 2 
   1      64.2613382000     -0.2731534179
   2      16.3006076000     -0.8168011598
 P 1 
   1       4.3550542000      1.0000000000
 P 1 
   1       1.2019554000      1.0000000000
 P 1 
   1       0.3354196000      1.0000000000
 D 2 
   1       9.2146611000     -0.4661230638
   2       2.8435251000     -0.6600908911
 D 1 
   1       0.9955759000     -1.0000000000
 D 1 
   1       0.3649441000     -1.0000000000
 F 2 
   1       2.6420115000      0.5931563945
   2       0.7345613000      0.5931563945
 G 1 
   1       1.3931000000     -1.0000000000
  end;

-------------------------
ECP PARAMETER INFORMATION
-------------------------




-------------------------
ECP BASIS IN INPUT FORMAT
-------------------------


------------------------------------------------------------------------------
                           ORCA GTO INTEGRAL CALCULATION
                           -- RI-GTO INTEGRALS CHOSEN --
------------------------------------------------------------------------------

                         BASIS SET STATISTICS AND STARTUP INFO

Gaussian basis set:
 # of primitive gaussian shells          ...  582
 # of primitive gaussian functions       ... 1210
 # of contracted shells                  ...  353
 # of contracted basis functions         ...  855
 Highest angular momentum                ...    3
 Maximum contraction depth               ...    6
Auxiliary gaussian basis set:
 # of primitive gaussian shells          ...  664
 # of primitive gaussian functions       ... 1790
 # of contracted shells                  ...  415
 # of contracted aux-basis functions     ... 1249
 Highest angular momentum                ...    4
 Maximum contraction depth               ...    7
Ratio of auxiliary to basis functions    ...  1.46
Integral package used                  ... LIBINT
 One Electron integrals                  
   ECP integrals                         ... done
 Ordering auxiliary basis shells         ... done
 Integral threshhold             Thresh  ...  2.500e-11
 Primitive cut-off               TCut    ...  2.500e-12
 Pre-screening matrix                    ... done
 Shell pair data                         ... 
 Ordering of the shell pairs             ... done (   0.009 sec) 50266 of 62481 pairs
 Determination of significant pairs      ... done (   0.000 sec)
 Creation of shell pair data             ... done (   0.006 sec)
 Storage of shell pair data              ... done (   0.025 sec)
 Shell pair data done in (   0.041 sec)
 Computing two index integrals           ... done
 Cholesky decomposition of the V-matrix  ... done


Timings:
 Total evaluation time                   ...   1.351 sec (  0.023 min)
 One electron matrix time                ...   0.563 sec (  0.009 min) = 41.7%
 Schwartz matrix evaluation time         ...   0.579 sec (  0.010 min) = 42.9%
 Two index repulsion integral time       ...   0.065 sec (  0.001 min) =  4.8%
 Cholesky decomposition of V             ...   0.071 sec (  0.001 min) =  5.2%
 Three index repulsion integral time     ...   0.000 sec (  0.000 min) =  0.0%

-------------------------------------------------------------------------------
                                 ORCA SCF
-------------------------------------------------------------------------------

------------
SCF SETTINGS
------------
Hamiltonian:
 Density Functional     Method          .... DFT(GTOs)
 Exchange Functional    Exchange        .... B88
   X-Alpha parameter    XAlpha          ....  0.666667
   Becke's b parameter  XBeta           ....  0.004200
 Correlation Functional Correlation     .... LYP
 LDA part of GGA corr.  LDAOpt          .... VWN-5
 Gradients option       PostSCFGGA      .... off
 Hybrid DFT is turned on
   Fraction HF Exchange ScalHFX         ....  0.200000
   Scaling of DF-GGA-X  ScalDFX         ....  0.720000
   Scaling of DF-GGA-C  ScalDFC         ....  0.810000
   Scaling of DF-LDA-C  ScalLDAC        ....  1.000000
   Perturbative correction              ....  0.000000
   NL short-range parameter             ....  4.800000
 RI-approximation to the Coulomb term is turned on
   Number of auxiliary basis functions  .... 1249
   RIJ-COSX (HFX calculated with COS-X)).... on


General Settings:
 Integral files         IntName         .... /nobackup/pmljrh/data/HTC-structures/bpath_HMF02/bpath_HMF02
 Hartree-Fock type      HFTyp           .... RHF
 Total Charge           Charge          ....    0
 Multiplicity           Mult            ....    1
 Number of Electrons    NEL             ....  152
 Basis Dimension        Dim             ....  855
 Nuclear Repulsion      ENuc            ....   1738.3035133900 Eh

Convergence Acceleration:
 DIIS                   CNVDIIS         .... on
   Start iteration      DIISMaxIt       ....    12
   Startup error        DIISStart       ....  0.200000
   # of expansion vecs  DIISMaxEq       ....     5
   Bias factor          DIISBfac        ....   1.050
   Max. coefficient     DIISMaxC        ....  10.000
 Newton-Raphson         CNVNR           .... off
 SOSCF                  CNVSOSCF        .... on
   Start iteration      SOSCFMaxIt      ....   150
   Startup grad/error   SOSCFStart      ....  0.003300
 Level Shifting         CNVShift        .... on
   Level shift para.    LevelShift      ....    0.2500
   Turn off err/grad.   ShiftErr        ....    0.0010
 Zerner damping         CNVZerner       .... off
 Static damping         CNVDamp         .... on
   Fraction old density DampFac         ....    0.7000
   Max. Damping (<1)    DampMax         ....    0.9800
   Min. Damping (>=0)   DampMin         ....    0.0000
   Turn off err/grad.   DampErr         ....    0.1000
 Fernandez-Rico         CNVRico         .... off

SCF Procedure:
 Maximum # iterations   MaxIter         ....   125
 SCF integral mode      SCFMode         .... Direct
   Integral package                     .... LIBINT
 Reset frequeny         DirectResetFreq ....    20
 Integral Threshold     Thresh          ....  2.500e-11 Eh
 Primitive CutOff       TCut            ....  2.500e-12 Eh

Convergence Tolerance:
 Convergence Check Mode ConvCheckMode   .... Total+1el-Energy
 Convergence forced     ConvForced      .... 0
 Energy Change          TolE            ....  1.000e-08 Eh
 1-El. energy change                    ....  1.000e-05 Eh
 Orbital Gradient       TolG            ....  1.000e-05
 Orbital Rotation angle TolX            ....  1.000e-05
 DIIS Error             TolErr          ....  5.000e-07


Diagonalization of the overlap matrix:
Smallest eigenvalue                        ... 4.995e-09
Time for diagonalization                   ...    0.186 sec
Threshold for overlap eigenvalues          ... 1.000e-08
Number of eigenvalues below threshold      ... 1
Time for construction of square roots      ...    0.148 sec
Total time needed                          ...    0.337 sec

-------------------
DFT GRID GENERATION
-------------------

General Integration Accuracy     IntAcc      ...  4.340
Radial Grid Type                 RadialGrid  ... Gauss-Chebyshev
Angular Grid (max. acc.)         AngularGrid ... Lebedev-194
Angular grid pruning method      GridPruning ... 3 (G Style)
Weight generation scheme         WeightScheme... Becke
Basis function cutoff            BFCut       ...    1.0000e-11
Integration weight cutoff        WCut        ...    1.0000e-14
Grids for H and He will be reduced by one unit

# of grid points (after initial pruning)     ...  99606 (   0.1 sec)
# of grid points (after weights+screening)   ...  87022 (   0.8 sec)
nearest neighbour list constructed           ...    0.0 sec
Grid point re-assignment to atoms done       ...    0.0 sec
Grid point division into batches done        ...    0.1 sec
Reduced shell lists constructed in    2.4 sec

Total number of grid points                  ...    87022
Total number of batches                      ...     1380
Average number of points per batch           ...       63
Average number of grid points per atom       ...     2122
Average number of shells per batch           ...   187.31 (53.06%)
Average number of basis functions per batch  ...   438.45 (51.28%)
Average number of large shells per batch     ...   137.64 (73.48%)
Average number of large basis fcns per batch ...   319.27 (72.82%)
Maximum spatial batch extension              ...  19.29, 20.07, 23.95 au
Average spatial batch extension              ...   2.62,  2.63,  3.01 au

Time for grid setup =    3.304 sec

------------------------------
INITIAL GUESS: MODEL POTENTIAL
------------------------------
Loading Hartree-Fock densities                     ... done
Calculating cut-offs                               ... done
Setting up the integral package                    ... done
Initializing the effective Hamiltonian             ... done
Starting the Coulomb interaction                   ... done (   3.8 sec)
Reading the grid                                   ... done
Mapping shells                                     ... done
Starting the XC term evaluation                    ... done (   9.7 sec)
  promolecular density results
     # of electrons  =    151.994687614
     EX              =   -123.328590733
     EC              =     -5.166288436
     EX+EC           =   -128.494879169
Transforming the Hamiltonian                       ... done (   0.1 sec)
Diagonalizing the Hamiltonian                      ... done (   0.2 sec)
Back transforming the eigenvectors                 ... done (   0.0 sec)
Now organizing SCF variables                       ... done
                      ------------------
                      INITIAL GUESS DONE (  17.4 sec)
                      ------------------
--------------------
COSX GRID GENERATION
--------------------

General Integration Accuracy     IntAcc      ...  3.340
Radial Grid Type                 RadialGrid  ... Gauss-Chebyshev
Angular Grid (max. acc.)         AngularGrid ... Lebedev-50
Angular grid pruning method      GridPruning ... 3 (G Style)
Weight generation scheme         WeightScheme... Becke
Basis function cutoff            BFCut       ...    1.0000e-11
Integration weight cutoff        WCut        ...    1.0000e-14
Grids for H and He will be reduced by one unit

# of grid points (after initial pruning)     ...  18580 (   0.0 sec)
# of grid points (after weights+screening)   ...  16639 (   0.1 sec)
nearest neighbour list constructed           ...    0.0 sec
Grid point re-assignment to atoms done       ...    0.0 sec
Grid point division into batches done        ...    0.0 sec
Reduced shell lists constructed in    0.5 sec

Total number of grid points                  ...    16639
Total number of batches                      ...      278
Average number of points per batch           ...       59
Average number of grid points per atom       ...      406
Average number of shells per batch           ...   205.03 (58.08%)
Average number of basis functions per batch  ...   487.25 (56.99%)
Average number of large shells per batch     ...   152.21 (74.24%)
Average number of large basis fcns per batch ...   358.05 (73.48%)
Maximum spatial batch extension              ...  18.17, 17.23, 22.85 au
Average spatial batch extension              ...   4.56,  4.26,  4.90 au

Overlap Fitting                  UseSFitting ... on
Constructing numerical overlap ... done (      0.6 sec)
Inverting numerical overlap    ... done (      0.0 sec)
Obtaining analytic overlap     ... done (      0.0 sec)
Final contraction and storage  ... done (      0.1 sec)


General Integration Accuracy     IntAcc      ...  3.670
Radial Grid Type                 RadialGrid  ... Gauss-Chebyshev
Angular Grid (max. acc.)         AngularGrid ... Lebedev-50
Angular grid pruning method      GridPruning ... 3 (G Style)
Weight generation scheme         WeightScheme... Becke
Basis function cutoff            BFCut       ...    1.0000e-11
Integration weight cutoff        WCut        ...    1.0000e-14
Grids for H and He will be reduced by one unit

# of grid points (after initial pruning)     ...  23618 (   0.0 sec)
# of grid points (after weights+screening)   ...  21069 (   0.2 sec)
nearest neighbour list constructed           ...    0.0 sec
Grid point re-assignment to atoms done       ...    0.0 sec
Grid point division into batches done        ...    0.0 sec
Reduced shell lists constructed in    0.6 sec

Total number of grid points                  ...    21069
Total number of batches                      ...      350
Average number of points per batch           ...       60
Average number of grid points per atom       ...      514
Average number of shells per batch           ...   201.18 (56.99%)
Average number of basis functions per batch  ...   476.07 (55.68%)
Average number of large shells per batch     ...   148.78 (73.96%)
Average number of large basis fcns per batch ...   348.65 (73.23%)
Maximum spatial batch extension              ...  17.64, 18.33, 24.84 au
Average spatial batch extension              ...   4.17,  3.95,  4.66 au

Overlap Fitting                  UseSFitting ... on
Constructing numerical overlap ... done (      0.7 sec)
Inverting numerical overlap    ... done (      0.0 sec)
Obtaining analytic overlap     ... done (      0.0 sec)
Final contraction and storage  ... done (      0.1 sec)


General Integration Accuracy     IntAcc      ...  4.010
Radial Grid Type                 RadialGrid  ... Gauss-Chebyshev
Angular Grid (max. acc.)         AngularGrid ... Lebedev-110
Angular grid pruning method      GridPruning ... 3 (G Style)
Weight generation scheme         WeightScheme... Becke
Basis function cutoff            BFCut       ...    1.0000e-11
Integration weight cutoff        WCut        ...    1.0000e-14
Grids for H and He will be reduced by one unit

# of grid points (after initial pruning)     ...  44050 (   0.0 sec)
# of grid points (after weights+screening)   ...  39066 (   0.3 sec)
nearest neighbour list constructed           ...    0.0 sec
Grid point re-assignment to atoms done       ...    0.0 sec
Grid point division into batches done        ...    0.0 sec
Reduced shell lists constructed in    1.1 sec

Total number of grid points                  ...    39066
Total number of batches                      ...      629
Average number of points per batch           ...       62
Average number of grid points per atom       ...      953
Average number of shells per batch           ...   195.84 (55.48%)
Average number of basis functions per batch  ...   462.12 (54.05%)
Average number of large shells per batch     ...   144.82 (73.95%)
Average number of large basis fcns per batch ...   337.98 (73.14%)
Maximum spatial batch extension              ...  20.11, 18.06, 21.99 au
Average spatial batch extension              ...   3.37,  3.35,  3.79 au

Overlap Fitting                  UseSFitting ... on
Constructing numerical overlap ... done (      1.3 sec)
Inverting numerical overlap    ... done (      0.0 sec)
Obtaining analytic overlap     ... done (      0.0 sec)
Final contraction and storage  ... done (      0.1 sec)

Time for X-Grid setup             =    6.055 sec
--------------
SCF ITERATIONS
--------------
               ***  Starting incremental Fock matrix formation  ***

                         ----------------------------
                         !        ITERATION     0   !
                         ----------------------------
   Total Energy        :    -922.829672196598 Eh
   Energy Change       :    -922.829672196598 Eh
   MAX-DP              :       3.330787068300
   RMS-DP              :       0.018059135096
   Actual Damping      :       0.7000
   Actual Level Shift  :       0.2500 Eh
   Int. Num. El.       :   152.00116366 (UP=   76.00058183 DN=   76.00058183)
   Exchange            :  -101.14839912
   Correlation         :    -6.14318653


                         ----------------------------
                         !        ITERATION     1   !
                         ----------------------------
   Total Energy        :    -923.079415527036 Eh
   Energy Change       :      -0.249743330438 Eh
   MAX-DP              :       2.447214019819
   RMS-DP              :       0.011195572924
   Actual Damping      :       0.7000
   Actual Level Shift  :       0.2500 Eh
   Int. Num. El.       :   152.00147890 (UP=   76.00073945 DN=   76.00073945)
   Exchange            :  -100.46582511
   Correlation         :    -6.11590021

                               ***Turning on DIIS***

                         ----------------------------
                         !        ITERATION     2   !
                         ----------------------------
   Total Energy        :    -923.184969057483 Eh
   Energy Change       :      -0.105553530447 Eh
   MAX-DP              :       2.657392881418
   RMS-DP              :       0.013152519521
   Actual Damping      :       0.0000
   Actual Level Shift  :       0.2500 Eh
   Int. Num. El.       :   152.00173506 (UP=   76.00086753 DN=   76.00086753)
   Exchange            :  -100.00108007
   Correlation         :    -6.09640258
   DIIS-Error          :       0.041187518965


                         ----------------------------
                         !        ITERATION     3   !
                         ----------------------------
   Total Energy        :    -923.333970734217 Eh
   Energy Change       :      -0.149001676734 Eh
   MAX-DP              :       3.491615013555
   RMS-DP              :       0.011462211650
   Actual Damping      :       0.0000
   Actual Level Shift  :       0.2500 Eh
   Int. Num. El.       :   152.00217964 (UP=   76.00108982 DN=   76.00108982)
   Exchange            :   -99.25565215
   Correlation         :    -6.06477124
   DIIS-Error          :       0.054045352336
   DIIS coefficients:
      0.55284   0.44716


                         ----------------------------
                         !        ITERATION     4   !
                         ----------------------------
   Total Energy        :    -923.375548796095 Eh
   Energy Change       :      -0.041578061878 Eh
   MAX-DP              :       0.895231147992
   RMS-DP              :       0.003020768889
   Actual Damping      :       0.0000
   Actual Level Shift  :       0.2500 Eh
   Int. Num. El.       :   152.00201749 (UP=   76.00100875 DN=   76.00100875)
   Exchange            :   -99.54378055
   Correlation         :    -6.07850076
   DIIS-Error          :       0.010863471399
   DIIS coefficients:
      0.19050   0.01772   0.79179


                         ----------------------------
                         !        ITERATION     5   !
                         ----------------------------
   Total Energy        :    -923.377371277419 Eh
   Energy Change       :      -0.001822481323 Eh
   MAX-DP              :       0.293314785749
   RMS-DP              :       0.001239292420
   Actual Damping      :       0.0000
   Actual Level Shift  :       0.2500 Eh
   Int. Num. El.       :   152.00198128 (UP=   76.00099064 DN=   76.00099064)
   Exchange            :   -99.61331113
   Correlation         :    -6.08158059
   DIIS-Error          :       0.003885341425
   DIIS coefficients:
      0.04891  -0.03148   0.25148   0.73110

                      *** Initiating the SOSCF procedure ***
                           *** Shutting down DIIS ***
                      *** Re-Reading the Fockian *** 
                      *** Removing any level shift *** 

                         ----------------------------
                         !        ITERATION     6   !
                         ----------------------------
   Total Energy        :    -923.377558738591 Eh
   Energy Change       :      -0.000187461173 Eh
   MAX-DP              :       0.949276187934
   RMS-DP              :       0.004065058248
   Orbital gradient    :       0.000231164579
   Orbital Rotation    :       0.000231164579
   Actual Damping      :       0.0000
   Int. Num. El.       :   152.00196791 (UP=   76.00098395 DN=   76.00098395)
   Exchange            :   -99.62182775
   Correlation         :    -6.08198557

               *** Restarting incremental Fock matrix formation ***

                         ----------------------------
                         !        ITERATION     7   !
                         ----------------------------
   Total Energy        :    -923.377577506809 Eh
   Energy Change       :      -0.000018768218 Eh
   MAX-DP              :       1.396892646021
   RMS-DP              :       0.005439390007
   Orbital gradient    :       0.000161785063
   Orbital Rotation    :       0.000712241143
   Actual Damping      :       0.0000
   Int. Num. El.       :   152.00196376 (UP=   76.00098188 DN=   76.00098188)
   Exchange            :   -99.62660203
   Correlation         :    -6.08215681


                         ----------------------------
                         !        ITERATION     8   !
                         ----------------------------
   Total Energy        :    -923.377575319235 Eh
   Energy Change       :       0.000002187574 Eh
   MAX-DP              :       0.572381802147
   RMS-DP              :       0.002206619173
   Orbital gradient    :       0.000295800811
   Orbital Rotation    :       0.000519438645
   Actual Damping      :       0.0000
   Int. Num. El.       :   152.00196385 (UP=   76.00098192 DN=   76.00098192)
   Exchange            :   -99.62618450
   Correlation         :    -6.08220784


                         ----------------------------
                         !        ITERATION     9   !
                         ----------------------------
   Total Energy        :    -923.377581038227 Eh
   Energy Change       :      -0.000005718992 Eh
   MAX-DP              :       0.815699704852
   RMS-DP              :       0.004261649624
   Orbital gradient    :       0.000050426570
   Orbital Rotation    :       0.000263350343
   Actual Damping      :       0.0000
   Int. Num. El.       :   152.00196372 (UP=   76.00098186 DN=   76.00098186)
   Exchange            :   -99.62723829
   Correlation         :    -6.08221708


                         ----------------------------
                         !        ITERATION    10   !
                         ----------------------------
   Total Energy        :    -923.377580729877 Eh
   Energy Change       :       0.000000308350 Eh
   MAX-DP              :       0.570190907200
   RMS-DP              :       0.002889226552
   Orbital gradient    :       0.000067421760
   Orbital Rotation    :       0.000165496768
   Actual Damping      :       0.0000
   Int. Num. El.       :   152.00196346 (UP=   76.00098173 DN=   76.00098173)
   Exchange            :   -99.62656625
   Correlation         :    -6.08218029


                         ----------------------------
                         !        ITERATION    11   !
                         ----------------------------
   Total Energy        :    -923.377581317328 Eh
   Energy Change       :      -0.000000587451 Eh
   MAX-DP              :       1.757858821081
   RMS-DP              :       0.010182830018
   Orbital gradient    :       0.000012261712
   Orbital Rotation    :       0.000052290931
   Actual Damping      :       0.0000
   Int. Num. El.       :   152.00196380 (UP=   76.00098190 DN=   76.00098190)
   Exchange            :   -99.62668863
   Correlation         :    -6.08219232


                         ----------------------------
                         !        ITERATION    12   !
                         ----------------------------
   Total Energy        :    -923.377581284152 Eh
   Energy Change       :       0.000000033176 Eh
   MAX-DP              :       1.478959722068
   RMS-DP              :       0.006944878864
   Orbital gradient    :       0.000015636935
   Orbital Rotation    :       0.000046217943
   Actual Damping      :       0.0000
   Int. Num. El.       :   152.00196370 (UP=   76.00098185 DN=   76.00098185)
   Exchange            :   -99.62700492
   Correlation         :    -6.08220571


                         ----------------------------
                         !        ITERATION    13   !
                         ----------------------------
   Total Energy        :    -923.377581261472 Eh
   Energy Change       :       0.000000022681 Eh
   MAX-DP              :       2.807114102655
   RMS-DP              :       0.010453613495
   Orbital gradient    :       0.000008617735
   Orbital Rotation    :       0.000028329649
   Actual Damping      :       0.0000
   Int. Num. El.       :   152.00196364 (UP=   76.00098182 DN=   76.00098182)
   Exchange            :   -99.62690590
   Correlation         :    -6.08220157


                         ----------------------------
                         !        ITERATION    14   !
                         ----------------------------
   Total Energy        :    -923.377581201703 Eh
   Energy Change       :       0.000000059768 Eh
   MAX-DP              :       0.728461118235
   RMS-DP              :       0.004105754894
   Orbital gradient    :       0.000009346974
   Orbital Rotation    :       0.000023623974
   Actual Damping      :       0.0000
   Int. Num. El.       :   152.00196381 (UP=   76.00098191 DN=   76.00098191)
   Exchange            :   -99.62668865
   Correlation         :    -6.08219183


                         ----------------------------
                         !        ITERATION    15   !
                         ----------------------------
   Total Energy        :    -923.377581240203 Eh
   Energy Change       :      -0.000000038500 Eh
   MAX-DP              :       2.267546002632
   RMS-DP              :       0.009224526518
   Orbital gradient    :       0.000007950316
   Orbital Rotation    :       0.000023347218
   Actual Damping      :       0.0000
   Int. Num. El.       :   152.00196386 (UP=   76.00098193 DN=   76.00098193)
   Exchange            :   -99.62679265
   Correlation         :    -6.08219652


                         ----------------------------
                         !        ITERATION    16   !
                         ----------------------------
   Total Energy        :    -923.377581294405 Eh
   Energy Change       :      -0.000000054202 Eh
   MAX-DP              :       0.903399763338
   RMS-DP              :       0.005802663820
   Orbital gradient    :       0.000007801913
   Orbital Rotation    :       0.000009262304
   Actual Damping      :       0.0000
   Int. Num. El.       :   152.00196372 (UP=   76.00098186 DN=   76.00098186)
   Exchange            :   -99.62698118
   Correlation         :    -6.08220482


                         ----------------------------
                         !        ITERATION    17   !
                         ----------------------------
   Total Energy        :    -923.377581253884 Eh
   Energy Change       :       0.000000040521 Eh
   MAX-DP              :       6.238873407094
   RMS-DP              :       0.023892951705
   Orbital gradient    :       0.000008404304
   Orbital Rotation    :       0.000053548674
   Actual Damping      :       0.0000
   Int. Num. El.       :   152.00196372 (UP=   76.00098186 DN=   76.00098186)
   Exchange            :   -99.62688804
   Correlation         :    -6.08220080


                         ----------------------------
                         !        ITERATION    18   !
                         ----------------------------
   Total Energy        :    -923.377580963392 Eh
   Energy Change       :       0.000000290492 Eh
   MAX-DP              :       3.727174310517
   RMS-DP              :       0.014388481828
   Orbital gradient    :       0.000023197325
   Orbital Rotation    :       0.000046226824
   Actual Damping      :       0.0000
   Int. Num. El.       :   152.00196385 (UP=   76.00098193 DN=   76.00098193)
   Exchange            :   -99.62656944
   Correlation         :    -6.08218635


                         ----------------------------
                         !        ITERATION    19   !
                         ----------------------------
   Total Energy        :    -923.377581212838 Eh
   Energy Change       :      -0.000000249447 Eh
   MAX-DP              :       1.177483952426
   RMS-DP              :       0.006654393275
   Orbital gradient    :       0.000009368700
   Orbital Rotation    :       0.000024692550
   Actual Damping      :       0.0000
   Int. Num. El.       :   152.00196375 (UP=   76.00098188 DN=   76.00098188)
   Exchange            :   -99.62680376
   Correlation         :    -6.08219707


                         ----------------------------
                         !        ITERATION    20   !
                         ----------------------------
   Total Energy        :    -923.377581143574 Eh
   Energy Change       :       0.000000069264 Eh
   MAX-DP              :       0.460284581537
   RMS-DP              :       0.002493824513
   Orbital gradient    :       0.000007947932
   Orbital Rotation    :       0.000010912386
   Actual Damping      :       0.0000
   Int. Num. El.       :   152.00196370 (UP=   76.00098185 DN=   76.00098185)
   Exchange            :   -99.62686966
   Correlation         :    -6.08219976


                         ----------------------------
                         !        ITERATION    21   !
                         ----------------------------
   Total Energy        :    -923.377581144992 Eh
   Energy Change       :      -0.000000001417 Eh
   MAX-DP              :       1.653589929240
   RMS-DP              :       0.007274958736
   Orbital gradient    :       0.000007968809
   Orbital Rotation    :       0.000037321336
   Actual Damping      :       0.0000
   Int. Num. El.       :   152.00196376 (UP=   76.00098188 DN=   76.00098188)
   Exchange            :   -99.62682397
   Correlation         :    -6.08219787


                         ----------------------------
                         !        ITERATION    22   !
                         ----------------------------
   Total Energy        :    -923.377581102275 Eh
   Energy Change       :       0.000000042717 Eh
   MAX-DP              :       0.335996186965
   RMS-DP              :       0.002298134890
   Orbital gradient    :       0.000015869135
   Orbital Rotation    :       0.000024446813
   Actual Damping      :       0.0000
   Int. Num. El.       :   152.00196389 (UP=   76.00098194 DN=   76.00098194)
   Exchange            :   -99.62674235
   Correlation         :    -6.08219450


                         ----------------------------
                         !        ITERATION    23   !
                         ----------------------------
   Total Energy        :    -923.377581109086 Eh
   Energy Change       :      -0.000000006811 Eh
   MAX-DP              :       5.722853495650
   RMS-DP              :       0.020768720026
   Orbital gradient    :       0.000012527376
   Orbital Rotation    :       0.000064405389
   Actual Damping      :       0.0000
   Int. Num. El.       :   152.00196385 (UP=   76.00098193 DN=   76.00098193)
   Exchange            :   -99.62679766
   Correlation         :    -6.08219678


                         ----------------------------
                         !        ITERATION    24   !
                         ----------------------------
   Total Energy        :    -923.377580807841 Eh
   Energy Change       :       0.000000301245 Eh
   MAX-DP              :       1.125683115895
   RMS-DP              :       0.005047943664
   Orbital gradient    :       0.000027686889
   Orbital Rotation    :       0.000045376145
   Actual Damping      :       0.0000
   Int. Num. El.       :   152.00196393 (UP=   76.00098197 DN=   76.00098197)
   Exchange            :   -99.62693028
   Correlation         :    -6.08220238


                         ----------------------------
                         !        ITERATION    25   !
                         ----------------------------
   Total Energy        :    -923.377580795997 Eh
   Energy Change       :       0.000000011844 Eh
   MAX-DP              :       4.455930478710
   RMS-DP              :       0.018621955244
   Orbital gradient    :       0.000012680353
   Orbital Rotation    :       0.000055852269
   Actual Damping      :       0.0000
   Int. Num. El.       :   152.00196389 (UP=   76.00098195 DN=   76.00098195)
   Exchange            :   -99.62687217
   Correlation         :    -6.08220007


                         ----------------------------
                         !        ITERATION    26   !
                         ----------------------------
   Total Energy        :    -923.377580540694 Eh
   Energy Change       :       0.000000255303 Eh
   MAX-DP              :       5.253199309533
   RMS-DP              :       0.023051988785
   Orbital gradient    :       0.000054721096
   Orbital Rotation    :       0.000042768659
   Actual Damping      :       0.0000
   Int. Num. El.       :   152.00196383 (UP=   76.00098191 DN=   76.00098191)
   Exchange            :   -99.62680982
   Correlation         :    -6.08219737

               *** Restarting incremental Fock matrix formation ***

                         ----------------------------
                         !        ITERATION    27   !
                         ----------------------------
   Total Energy        :    -923.377580767741 Eh
   Energy Change       :      -0.000000227047 Eh
   MAX-DP              :      13.427905001955
   RMS-DP              :       0.062507587532
   Orbital gradient    :       0.000049917269
   Orbital Rotation    :       0.000179403366
   Actual Damping      :       0.0000
   Int. Num. El.       :   152.00196377 (UP=   76.00098188 DN=   76.00098188)
   Exchange            :   -99.62671413
   Correlation         :    -6.08219292


                         ----------------------------
                         !        ITERATION    28   !
                         ----------------------------
   Total Energy        :    -923.377581095616 Eh
   Energy Change       :      -0.000000327875 Eh
   MAX-DP              :       3.502040168638
   RMS-DP              :       0.017910510407
   Orbital gradient    :       0.000044374971
   Orbital Rotation    :       0.000111162366
   Actual Damping      :       0.0000
   Int. Num. El.       :   152.00196404 (UP=   76.00098202 DN=   76.00098202)
   Exchange            :   -99.62679012
   Correlation         :    -6.08219647


                         ----------------------------
                         !        ITERATION    29   !
                         ----------------------------
   Total Energy        :    -923.377581287644 Eh
   Energy Change       :      -0.000000192028 Eh
[...]
                         ----------------------------
   Total Energy        :    -923.377581183487 Eh
   Energy Change       :       0.000000066014 Eh
   MAX-DP              :       1.375180956693
   RMS-DP              :       0.005473690291
   Orbital gradient    :       0.000010418784
   Orbital Rotation    :       0.000010743218
   Actual Damping      :       0.0000
   Int. Num. El.       :   152.00196368 (UP=   76.00098184 DN=   76.00098184)
   Exchange            :   -99.62682202
   Correlation         :    -6.08219786


                         ----------------------------
                         !        ITERATION    97   !
                         ----------------------------
   Total Energy        :    -923.377581245272 Eh
   Energy Change       :      -0.000000061784 Eh
   MAX-DP              :       2.072364131341
   RMS-DP              :       0.010310403772
   Orbital gradient    :       0.000011618220
   Orbital Rotation    :       0.000017267818
   Actual Damping      :       0.0000
   Int. Num. El.       :   152.00196370 (UP=   76.00098185 DN=   76.00098185)
   Exchange            :   -99.62682207
   Correlation         :    -6.08219781


                         ----------------------------
                         !        ITERATION    98   !
                         ----------------------------
   Total Energy        :    -923.377581235518 Eh
   Energy Change       :       0.000000009753 Eh
   MAX-DP              :       0.898036546996
   RMS-DP              :       0.002958433997
   Orbital gradient    :       0.000006565199
   Orbital Rotation    :       0.000009863038
   Actual Damping      :       0.0000
   Int. Num. El.       :   152.00196376 (UP=   76.00098188 DN=   76.00098188)
   Exchange            :   -99.62680572
   Correlation         :    -6.08219711


                         ----------------------------
                         !        ITERATION    99   !
                         ----------------------------
   Total Energy        :    -923.377581220690 Eh
   Energy Change       :       0.000000014829 Eh
   MAX-DP              :       5.614990478594
   RMS-DP              :       0.020990803967
   Orbital gradient    :       0.000010691885
   Orbital Rotation    :       0.000065524524
   Actual Damping      :       0.0000
   Int. Num. El.       :   152.00196375 (UP=   76.00098187 DN=   76.00098187)
   Exchange            :   -99.62682467
   Correlation         :    -6.08219789


                         ----------------------------
                         !        ITERATION   100   !
                         ----------------------------
   Total Energy        :    -923.377580938118 Eh
   Energy Change       :       0.000000282572 Eh
   MAX-DP              :       3.685539868955
   RMS-DP              :       0.015107635007
   Orbital gradient    :       0.000022353744
   Orbital Rotation    :       0.000044455342
   Actual Damping      :       0.0000
   Int. Num. El.       :   152.00196362 (UP=   76.00098181 DN=   76.00098181)
   Exchange            :   -99.62690201
   Correlation         :    -6.08220141


                         ----------------------------
                         !        ITERATION   101   !
                         ----------------------------
   Total Energy        :    -923.377581157888 Eh
   Energy Change       :      -0.000000219770 Eh
   MAX-DP              :       0.473631833129
   RMS-DP              :       0.002134409321
   Orbital gradient    :       0.000003353654
   Orbital Rotation    :       0.000004778074
   Actual Damping      :       0.0000
   Int. Num. El.       :   152.00196366 (UP=   76.00098183 DN=   76.00098183)
   Exchange            :   -99.62684447
   Correlation         :    -6.08219883


                         ----------------------------
                         !        ITERATION   102   !
                         ----------------------------
   Total Energy        :    -923.377581174251 Eh
   Energy Change       :      -0.000000016363 Eh
   MAX-DP              :       0.639139078647
   RMS-DP              :       0.003804119406
   Orbital gradient    :       0.000006611464
   Orbital Rotation    :       0.000010681588
   Actual Damping      :       0.0000
   Int. Num. El.       :   152.00196361 (UP=   76.00098181 DN=   76.00098181)
   Exchange            :   -99.62684280
   Correlation         :    -6.08219873


                         ----------------------------
                         !        ITERATION   103   !
                         ----------------------------
   Total Energy        :    -923.377581156781 Eh
   Energy Change       :       0.000000017470 Eh
   MAX-DP              :       0.367585524268
   RMS-DP              :       0.002576517929
   Orbital gradient    :       0.000006426482
   Orbital Rotation    :       0.000006593848
   Actual Damping      :       0.0000
   Int. Num. El.       :   152.00196352 (UP=   76.00098176 DN=   76.00098176)
   Exchange            :   -99.62683266
   Correlation         :    -6.08219822


                         ----------------------------
                         !        ITERATION   104   !
                         ----------------------------
   Total Energy        :    -923.377581166930 Eh
   Energy Change       :      -0.000000010149 Eh
   MAX-DP              :       4.167438318555
   RMS-DP              :       0.022356004752
   Orbital gradient    :       0.000014091318
   Orbital Rotation    :       0.000075365243
   Actual Damping      :       0.0000
   Int. Num. El.       :   152.00196351 (UP=   76.00098175 DN=   76.00098175)
   Exchange            :   -99.62683068
   Correlation         :    -6.08219814


                         ----------------------------
                         !        ITERATION   105   !
                         ----------------------------
   Total Energy        :    -923.377580702203 Eh
   Energy Change       :       0.000000464727 Eh
   MAX-DP              :       3.093266724288
   RMS-DP              :       0.017563684027
   Orbital gradient    :       0.000028618842
   Orbital Rotation    :       0.000061059004
   Actual Damping      :       0.0000
   Int. Num. El.       :   152.00196347 (UP=   76.00098173 DN=   76.00098173)
   Exchange            :   -99.62681228
   Correlation         :    -6.08219733


                         ----------------------------
                         !        ITERATION   106   !
                         ----------------------------
   Total Energy        :    -923.377581146284 Eh
   Energy Change       :      -0.000000444082 Eh
   MAX-DP              :       5.171944383670
   RMS-DP              :       0.033253506972
   Orbital gradient    :       0.000033709328
   Orbital Rotation    :       0.000111399054
   Actual Damping      :       0.0000
   Int. Num. El.       :   152.00196353 (UP=   76.00098176 DN=   76.00098176)
   Exchange            :   -99.62683364
   Correlation         :    -6.08219830

               *** Restarting incremental Fock matrix formation ***

                         ----------------------------
                         !        ITERATION   107   !
                         ----------------------------
   Total Energy        :    -923.377581100831 Eh
   Energy Change       :       0.000000045453 Eh
   MAX-DP              :       3.263377607419
   RMS-DP              :       0.019828772970
   Orbital gradient    :       0.000024679703
   Orbital Rotation    :       0.000055491292
   Actual Damping      :       0.0000
   Int. Num. El.       :   152.00196394 (UP=   76.00098197 DN=   76.00098197)
   Exchange            :   -99.62683343
   Correlation         :    -6.08219848


                         ----------------------------
                         !        ITERATION   108   !
                         ----------------------------
   Total Energy        :    -923.377581296291 Eh
   Energy Change       :      -0.000000195460 Eh
   MAX-DP              :       1.576786300099
   RMS-DP              :       0.006237585913
   Orbital gradient    :       0.000012663198
   Orbital Rotation    :       0.000019391306
   Actual Damping      :       0.0000
   Int. Num. El.       :   152.00196366 (UP=   76.00098183 DN=   76.00098183)
   Exchange            :   -99.62683232
   Correlation         :    -6.08219834


                         ----------------------------
                         !        ITERATION   109   !
                         ----------------------------
   Total Energy        :    -923.377581297354 Eh
   Energy Change       :      -0.000000001063 Eh
   MAX-DP              :       3.116589699509
   RMS-DP              :       0.016226314605
   Orbital gradient    :       0.000015218666
   Orbital Rotation    :       0.000036923691
   Actual Damping      :       0.0000
   Int. Num. El.       :   152.00196361 (UP=   76.00098181 DN=   76.00098181)
   Exchange            :   -99.62682970
   Correlation         :    -6.08219817


                         ----------------------------
                         !        ITERATION   110   !
                         ----------------------------
   Total Energy        :    -923.377581164532 Eh
   Energy Change       :       0.000000132822 Eh
   MAX-DP              :       1.672192569173
   RMS-DP              :       0.005525902817
   Orbital gradient    :       0.000013154388
   Orbital Rotation    :       0.000020886012
   Actual Damping      :       0.0000
   Int. Num. El.       :   152.00196359 (UP=   76.00098179 DN=   76.00098179)
   Exchange            :   -99.62680593
   Correlation         :    -6.08219692


                         ----------------------------
                         !        ITERATION   111   !
                         ----------------------------
   Total Energy        :    -923.377581255998 Eh
   Energy Change       :      -0.000000091467 Eh
   MAX-DP              :       1.303858069536
   RMS-DP              :       0.005945281837
   Orbital gradient    :       0.000008274999
   Orbital Rotation    :       0.000017414035
   Actual Damping      :       0.0000
   Int. Num. El.       :   152.00196359 (UP=   76.00098180 DN=   76.00098180)
   Exchange            :   -99.62682883
   Correlation         :    -6.08219807


                         ----------------------------
                         !        ITERATION   112   !
                         ----------------------------
   Total Energy        :    -923.377581260430 Eh
   Energy Change       :      -0.000000004432 Eh
   MAX-DP              :       2.696696456891
   RMS-DP              :       0.008446449895
   Orbital gradient    :       0.000017954859
   Orbital Rotation    :       0.000023297975
   Actual Damping      :       0.0000
   Int. Num. El.       :   152.00196353 (UP=   76.00098177 DN=   76.00098177)
   Exchange            :   -99.62684416
   Correlation         :    -6.08219869


                         ----------------------------
                         !        ITERATION   113   !
                         ----------------------------
   Total Energy        :    -923.377581216041 Eh
   Energy Change       :       0.000000044389 Eh
   MAX-DP              :       1.298715211726
   RMS-DP              :       0.004678482262
   Orbital gradient    :       0.000019464760
   Orbital Rotation    :       0.000016174238
   Actual Damping      :       0.0000
   Int. Num. El.       :   152.00196359 (UP=   76.00098179 DN=   76.00098179)
   Exchange            :   -99.62683700
   Correlation         :    -6.08219838


                         ----------------------------
                         !        ITERATION   114   !
                         ----------------------------
   Total Energy        :    -923.377581205853 Eh
   Energy Change       :       0.000000010188 Eh
   MAX-DP              :       0.839653902046
   RMS-DP              :       0.005783999753
   Orbital gradient    :       0.000008772761
   Orbital Rotation    :       0.000034330305
   Actual Damping      :       0.0000
   Int. Num. El.       :   152.00196358 (UP=   76.00098179 DN=   76.00098179)
   Exchange            :   -99.62683234
   Correlation         :    -6.08219833


                         ----------------------------
                         !        ITERATION   115   !
                         ----------------------------
   Total Energy        :    -923.377581165520 Eh
   Energy Change       :       0.000000040333 Eh
   MAX-DP              :       1.966495550246
   RMS-DP              :       0.009993122491
   Orbital gradient    :       0.000015676298
   Orbital Rotation    :       0.000023689001
   Actual Damping      :       0.0000
   Int. Num. El.       :   152.00196363 (UP=   76.00098182 DN=   76.00098182)
   Exchange            :   -99.62682493
   Correlation         :    -6.08219799


                         ----------------------------
                         !        ITERATION   116   !
                         ----------------------------
   Total Energy        :    -923.377581030111 Eh
   Energy Change       :       0.000000135409 Eh
   MAX-DP              :       1.201173833505
   RMS-DP              :       0.005239044204
   Orbital gradient    :       0.000009381880
   Orbital Rotation    :       0.000017149006
   Actual Damping      :       0.0000
   Int. Num. El.       :   152.00196369 (UP=   76.00098184 DN=   76.00098184)
   Exchange            :   -99.62681712
   Correlation         :    -6.08219758


                         ----------------------------
                         !        ITERATION   117   !
                         ----------------------------
   Total Energy        :    -923.377581019590 Eh
   Energy Change       :       0.000000010520 Eh
   MAX-DP              :       1.608466613110
   RMS-DP              :       0.008812741583
   Orbital gradient    :       0.000005767413
   Orbital Rotation    :       0.000023992094
   Actual Damping      :       0.0000
   Int. Num. El.       :   152.00196370 (UP=   76.00098185 DN=   76.00098185)
   Exchange            :   -99.62681549
   Correlation         :    -6.08219740


                         ----------------------------
                         !        ITERATION   118   !
                         ----------------------------
   Total Energy        :    -923.377581088778 Eh
   Energy Change       :      -0.000000069188 Eh
   MAX-DP              :       0.873003959978
   RMS-DP              :       0.004592267820
   Orbital gradient    :       0.000010480340
   Orbital Rotation    :       0.000010745457
   Actual Damping      :       0.0000
   Int. Num. El.       :   152.00196372 (UP=   76.00098186 DN=   76.00098186)
   Exchange            :   -99.62683625
   Correlation         :    -6.08219832


                         ----------------------------
                         !        ITERATION   119   !
                         ----------------------------
   Total Energy        :    -923.377581144792 Eh
   Energy Change       :      -0.000000056014 Eh
   MAX-DP              :       2.737831098816
   RMS-DP              :       0.014910171403
   Orbital gradient    :       0.000011109521
   Orbital Rotation    :       0.000033122147
   Actual Damping      :       0.0000
   Int. Num. El.       :   152.00196373 (UP=   76.00098187 DN=   76.00098187)
   Exchange            :   -99.62683741
   Correlation         :    -6.08219844


                         ----------------------------
                         !        ITERATION   120   !
                         ----------------------------
   Total Energy        :    -923.377581199127 Eh
   Energy Change       :      -0.000000054335 Eh
   MAX-DP              :       2.002743563943
   RMS-DP              :       0.009657244530
   Orbital gradient    :       0.000014221621
   Orbital Rotation    :       0.000026446905
   Actual Damping      :       0.0000
   Int. Num. El.       :   152.00196378 (UP=   76.00098189 DN=   76.00098189)
   Exchange            :   -99.62683952
   Correlation         :    -6.08219854


                         ----------------------------
                         !        ITERATION   121   !
                         ----------------------------
   Total Energy        :    -923.377581145777 Eh
   Energy Change       :       0.000000053351 Eh
   MAX-DP              :       5.211499898450
   RMS-DP              :       0.016253522223
   Orbital gradient    :       0.000012396107
   Orbital Rotation    :       0.000047291684
   Actual Damping      :       0.0000
   Int. Num. El.       :   152.00196374 (UP=   76.00098187 DN=   76.00098187)
   Exchange            :   -99.62683271
   Correlation         :    -6.08219835


                         ----------------------------
                         !        ITERATION   122   !
                         ----------------------------
   Total Energy        :    -923.377580952370 Eh
   Energy Change       :       0.000000193407 Eh
   MAX-DP              :       1.767945874842
   RMS-DP              :       0.006612571373
   Orbital gradient    :       0.000009186188
   Orbital Rotation    :       0.000017372426
   Actual Damping      :       0.0000
   Int. Num. El.       :   152.00196382 (UP=   76.00098191 DN=   76.00098191)
   Exchange            :   -99.62681332
   Correlation         :    -6.08219738


                         ----------------------------
                         !        ITERATION   123   !
                         ----------------------------
   Total Energy        :    -923.377581062533 Eh
   Energy Change       :      -0.000000110163 Eh
   MAX-DP              :       1.379268279294
   RMS-DP              :       0.008918014779
   Orbital gradient    :       0.000008467014
   Orbital Rotation    :       0.000017118676
   Actual Damping      :       0.0000
   Int. Num. El.       :   152.00196381 (UP=   76.00098191 DN=   76.00098191)
   Exchange            :   -99.62682023
   Correlation         :    -6.08219766


                         ----------------------------
                         !        ITERATION   124   !
                         ----------------------------
   Total Energy        :    -923.377581111841 Eh
   Energy Change       :      -0.000000049308 Eh
   MAX-DP              :       1.260463119323
   RMS-DP              :       0.005230902763
   Orbital gradient    :       0.000009787896
   Orbital Rotation    :       0.000013381664
   Actual Damping      :       0.0000
   Int. Num. El.       :   152.00196384 (UP=   76.00098192 DN=   76.00098192)
   Exchange            :   -99.62683913
   Correlation         :    -6.08219852

              ***Rediagonalizing the Fockian in SOSCF/NRSCF***

               *****************************************************
               *                      ERROR                        *
               *        SCF NOT CONVERGED AFTER 125 CYCLES         *
               *****************************************************


---------------
SCF CONVERGENCE
---------------

  Last Energy change         ...   -4.9308e-08  Tolerance :   1.0000e-08
  Last MAX-Density change    ...    1.2605e+00  Tolerance :   1.0000e-07
  Last RMS-Density change    ...    5.2309e-03  Tolerance :   5.0000e-09
  Last Orbital Gradient      ...    9.7879e-06  Tolerance :   1.0000e-05
  Last Orbital Rotation      ...    1.3382e-05  Tolerance :   1.0000e-05

     --------------------------------------------------------------------
                                      ERROR
     This wavefunction IS NOT CONVERGED! 
     And it is 'too far' from meeting the convergence thresholds.
     Aborting ...
     Please restart calculation (with larger maxiter?)
     --------------------------------------------------------------------



ORCA finished by error termination in SCF
Calling Command: /apps/applications/orca/4.0.0/1/default/bin.real/orca_scf /nobackup/pmljrh/data/HTC-structures/bpath_HMF02/bpath_HMF02.gbw b 
[file orca_tools/qcmsg.cpp, line 432]: 
  .... aborting the run

