31
	Energy:      84.3936786
C         -1.22518        0.63995       -0.00057
C         -0.78411       -0.66624       -0.00156
C          0.59213       -0.61013       -0.00159
C          0.92139        0.74131       -0.00058
C         -2.64450        1.10522       -0.00016
H         -3.16252        0.72833       -0.90659
H         -2.68039        2.21471        0.00067
H         -3.16244        0.72698        0.90576
C         -1.60814       -1.91529       -0.00248
H         -2.69251       -1.68031       -0.00225
H         -1.37325       -2.51473        0.90165
H         -1.37333       -2.51336       -0.90753
O         -0.19154        1.44812       -0.00002
H          1.21716       -1.47853       -0.00231
C          2.25868        1.44948       -0.00015
C          3.58663        0.72395       -0.00049
H          2.26294        2.10356        0.89733
H          2.26294        2.10454       -0.89691
C          3.89813       -0.63147       -0.00095
C          5.27422       -0.70498       -0.00104
H          3.26049       -1.49057       -0.00118
C          5.73233        0.59566       -0.00062
O          4.70863        1.41619       -0.00028
C          7.15536        1.05387       -0.00052
H          7.85650        0.19390       -0.00084
H          7.34364        1.66834        0.90408
H          7.34357        1.66897       -0.90471
C          6.09427       -1.95615       -0.00149
H          5.43873       -2.85251       -0.00176
H          6.73549       -1.98229        0.90413
H          6.73542       -1.98169       -0.90718
