29
	Energy:      82.9144564
C         -1.19717        0.66345       -0.00970
C         -0.79035       -0.66111        0.00862
C          0.58867       -0.63696        0.00701
C          0.94913        0.70510       -0.01226
C         -2.44774        1.13153       -0.01516
C         -1.62377       -1.90741        0.02697
H         -2.70838       -1.68456        0.02483
H         -1.38805       -2.49468        0.93889
H         -1.38972       -2.52019       -0.86844
O         -0.14164        1.44454       -0.02169
C          2.17163        1.27061       -0.02135
C          3.51526        0.63591       -0.01364
C          3.88145       -0.70512        0.00487
C          5.25945       -0.71980        0.00384
H          3.27115       -1.58751        0.01780
C          5.66191        0.60022       -0.01505
O          4.60435        1.37749       -0.02503
C          7.06437        1.11793       -0.02357
H          7.80110        0.28832       -0.01258
H          7.22735        1.75273        0.87185
H          7.22574        1.72733       -0.93676
C          6.13192       -1.93479        0.02012
H          5.51496       -2.85803        0.03364
H          6.77443       -1.92063        0.92510
H          6.77281       -1.94606       -0.88604
H          2.19143        2.35712       -0.03669
H         -2.62347        2.20250       -0.03011
H         -3.30842        0.47342       -0.00508
H          1.20163       -1.51648        0.01887
